n -t * -s 0  -x 0 -y 0 -Z 0 -z 30+i*100  -v circle -c black
n -t * -s 1  -x 0 -y 0 -Z 0 -z 30+i*100  -v circle -c black
n -t * -s 2  -x 0 -y 0 -Z 0 -z 30+i*100  -v circle -c black
n -t * -s 3  -x 0 -y 0 -Z 0 -z 30+i*100  -v circle -c black
n -t * -s 4  -x 0 -y 0 -Z 0 -z 30+i*100  -v circle -c black
n -t * -s 5  -x 0 -y 0 -Z 0 -z 30+i*100  -v circle -c black
V -t * -v 1.0a5 -a 0
W -t * -x 800 -y 800
A -t * -n 1 -p 0 -o 0x7fffffff -c 30 -a 1
A -t * -h 1 -m 1073741823 -s 0
c -t * -i 4 -n brown
c -t * -i 0 -n blue
c -t * -i 5 -n tan
c -t * -i 1 -n red
c -t * -i 6 -n gold
c -t * -i 2 -n chocolate
c -t * -i 7 -n black
c -t * -i 3 -n red
n -t 0 -s 0 -S COLOR -c blue -o 0 -i blue -I 0
n -t 0 -s 1 -S COLOR -c black -o blue -i black -I blue
n -t 0 -s 5 -S COLOR -c blue -o red -i blue -I red
n -t 0.000000 -s 0 -x 0.000000 -y 0.000000 -U 2121.320344 -V 2121.320344 -T 0.047140
n -t 0.000000 -s 1 -x 0.000000 -y 0.000000 -U 2121.320344 -V 2121.320344 -T 0.094281
n -t 0.000000 -s 2 -x 0.000000 -y 0.000000 -U 2496.150883 -V 1664.100589 -T 0.120185
n -t 0.000000 -s 3 -x 0.000000 -y 0.000000 -U 2400.000000 -V 1800.000000 -T 0.166667
n -t 0.000000 -s 4 -x 0.000000 -y 0.000000 -U 2572.478777 -V 1543.487266 -T 0.194365
n -t 0.000000 -s 5 -x 0.000000 -y 0.000000 -U 2496.150883 -V 1664.100589 -T 0.240370
+ -t 0.500000000 -s 0 -d -1 -p cbr -e 1000 -c 2 -a 0 -i 0 -k AGT 
- -t 0.500000000 -s 0 -d -1 -p cbr -e 1000 -c 2 -a 0 -i 0 -k AGT
h -t 0.500000000 -s 0 -d -1 -p cbr -e 1000 -c 2 -a 0 -i 0 -k AGT
+ -t 0.500000000 -s 0 -d -1 -p AODV -e 48 -c 2 -a 0 -i 0 -k RTR 
- -t 0.500000000 -s 0 -d -1 -p AODV -e 48 -c 2 -a 0 -i 0 -k RTR
h -t 0.500000000 -s 0 -d -1 -p AODV -e 48 -c 2 -a 0 -i 0 -k RTR
+ -t 0.500235000 -s 0 -d -1 -p AODV -e 106 -c 2 -a 0 -i 0 -k MAC 
- -t 0.500235000 -s 0 -d -1 -p AODV -e 106 -c 2 -a 0 -i 0 -k MAC
h -t 0.500235000 -s 0 -d -1 -p AODV -e 106 -c 2 -a 0 -i 0 -k MAC
r -t 0.501083471 -s 1 -d -1 -p AODV -e 48 -c 2 -a 0 -i 0 -k MAC
r -t 0.501083745 -s 2 -d -1 -p AODV -e 48 -c 2 -a 0 -i 0 -k MAC
r -t 0.501108471 -s 1 -d -1 -p AODV -e 48 -c 2 -a 0 -i 0 -k RTR
r -t 0.501108745 -s 2 -d -1 -p AODV -e 48 -c 2 -a 0 -i 0 -k RTR
+ -t 0.503454489 -s 1 -d -1 -p AODV -e 48 -c 2 -a 0 -i 0 -k RTR 
- -t 0.503454489 -s 1 -d -1 -p AODV -e 48 -c 2 -a 0 -i 0 -k RTR
h -t 0.503454489 -s 1 -d -1 -p AODV -e 48 -c 2 -a 0 -i 0 -k RTR
+ -t 0.503789489 -s 1 -d -1 -p AODV -e 106 -c 2 -a 0 -i 0 -k MAC 
- -t 0.503789489 -s 1 -d -1 -p AODV -e 106 -c 2 -a 0 -i 0 -k MAC
h -t 0.503789489 -s 1 -d -1 -p AODV -e 106 -c 2 -a 0 -i 0 -k MAC
r -t 0.504637822 -s 2 -d -1 -p AODV -e 48 -c 2 -a 0 -i 0 -k MAC
r -t 0.504637960 -s 0 -d -1 -p AODV -e 48 -c 2 -a 0 -i 0 -k MAC
r -t 0.504638234 -s 3 -d -1 -p AODV -e 48 -c 2 -a 0 -i 0 -k MAC
r -t 0.504662822 -s 2 -d -1 -p AODV -e 48 -c 2 -a 0 -i 0 -k RTR
r -t 0.504662960 -s 0 -d -1 -p AODV -e 48 -c 2 -a 0 -i 0 -k RTR
r -t 0.504663234 -s 3 -d -1 -p AODV -e 48 -c 2 -a 0 -i 0 -k RTR
+ -t 0.506304688 -s 3 -d -1 -p AODV -e 48 -c 2 -a 0 -i 0 -k RTR 
- -t 0.506304688 -s 3 -d -1 -p AODV -e 48 -c 2 -a 0 -i 0 -k RTR
h -t 0.506304688 -s 3 -d -1 -p AODV -e 48 -c 2 -a 0 -i 0 -k RTR
+ -t 0.506919688 -s 3 -d -1 -p AODV -e 106 -c 2 -a 0 -i 0 -k MAC 
- -t 0.506919688 -s 3 -d -1 -p AODV -e 106 -c 2 -a 0 -i 0 -k MAC
h -t 0.506919688 -s 3 -d -1 -p AODV -e 106 -c 2 -a 0 -i 0 -k MAC
+ -t 0.507497397 -s 2 -d -1 -p AODV -e 48 -c 2 -a 0 -i 0 -k RTR 
- -t 0.507497397 -s 2 -d -1 -p AODV -e 48 -c 2 -a 0 -i 0 -k RTR
h -t 0.507497397 -s 2 -d -1 -p AODV -e 48 -c 2 -a 0 -i 0 -k RTR
r -t 0.507768022 -s 4 -d -1 -p AODV -e 48 -c 2 -a 0 -i 0 -k MAC
r -t 0.507768160 -s 2 -d -1 -p AODV -e 48 -c 2 -a 0 -i 0 -k MAC
r -t 0.507768434 -s 1 -d -1 -p AODV -e 48 -c 2 -a 0 -i 0 -k MAC
r -t 0.507768434 -s 5 -d -1 -p AODV -e 48 -c 2 -a 0 -i 0 -k MAC
r -t 0.507793022 -s 4 -d -1 -p AODV -e 48 -c 2 -a 0 -i 0 -k RTR
r -t 0.507793160 -s 2 -d -1 -p AODV -e 48 -c 2 -a 0 -i 0 -k RTR
r -t 0.507793434 -s 1 -d -1 -p AODV -e 48 -c 2 -a 0 -i 0 -k RTR
r -t 0.507793434 -s 5 -d -1 -p AODV -e 48 -c 2 -a 0 -i 0 -k RTR
+ -t 0.507793434 -s 5 -d 3 -p AODV -e 44 -c 2 -a 0 -i 0 -k RTR 
- -t 0.507793434 -s 5 -d 3 -p AODV -e 44 -c 2 -a 0 -i 0 -k RTR
h -t 0.507793434 -s 5 -d 3 -p AODV -e 44 -c 2 -a 0 -i 0 -k RTR
+ -t 0.507978160 -s 2 -d -1 -p AODV -e 106 -c 2 -a 0 -i 0 -k MAC 
- -t 0.507978160 -s 2 -d -1 -p AODV -e 106 -c 2 -a 0 -i 0 -k MAC
h -t 0.507978160 -s 2 -d -1 -p AODV -e 106 -c 2 -a 0 -i 0 -k MAC
r -t 0.508826493 -s 1 -d -1 -p AODV -e 48 -c 2 -a 0 -i 0 -k MAC
r -t 0.508826631 -s 3 -d -1 -p AODV -e 48 -c 2 -a 0 -i 0 -k MAC
r -t 0.508826905 -s 0 -d -1 -p AODV -e 48 -c 2 -a 0 -i 0 -k MAC
r -t 0.508826905 -s 4 -d -1 -p AODV -e 48 -c 2 -a 0 -i 0 -k MAC
r -t 0.508851493 -s 1 -d -1 -p AODV -e 48 -c 2 -a 0 -i 0 -k RTR
r -t 0.508851631 -s 3 -d -1 -p AODV -e 48 -c 2 -a 0 -i 0 -k RTR
r -t 0.508851905 -s 0 -d -1 -p AODV -e 48 -c 2 -a 0 -i 0 -k RTR
r -t 0.508851905 -s 4 -d -1 -p AODV -e 48 -c 2 -a 0 -i 0 -k RTR
+ -t 0.509281362 -s 5 -d -1 -p ARP -e 86 -c 2 -a 0 -i 0 -k MAC 
- -t 0.509281362 -s 5 -d -1 -p ARP -e 86 -c 2 -a 0 -i 0 -k MAC
h -t 0.509281362 -s 5 -d -1 -p ARP -e 86 -c 2 -a 0 -i 0 -k MAC
r -t 0.509969833 -s 4 -d -1 -p ARP -e 28 -c 2 -a 0 -i 0 -k MAC
r -t 0.509970107 -s 3 -d -1 -p ARP -e 28 -c 2 -a 0 -i 0 -k MAC
+ -t 0.510345107 -s 3 -d -1 -p RTS -e 44 -c 2 -a 0 -i 0 -k MAC 
- -t 0.510345107 -s 3 -d -1 -p RTS -e 44 -c 2 -a 0 -i 0 -k MAC
h -t 0.510345107 -s 3 -d -1 -p RTS -e 44 -c 2 -a 0 -i 0 -k MAC
r -t 0.510697852 -s 5 -d -1 -p RTS -e 44 -c 2 -a 0 -i 0 -k MAC
+ -t 0.510707852 -s 5 -d -1 -p CTS -e 38 -c 2 -a 0 -i 0 -k MAC 
- -t 0.510707852 -s 5 -d -1 -p CTS -e 38 -c 2 -a 0 -i 0 -k MAC
h -t 0.510707852 -s 5 -d -1 -p CTS -e 38 -c 2 -a 0 -i 0 -k MAC
r -t 0.511012598 -s 3 -d -1 -p CTS -e 38 -c 2 -a 0 -i 0 -k MAC
+ -t 0.511022598 -s 3 -d -1 -p ARP -e 86 -c 2 -a 0 -i 0 -k MAC 
- -t 0.511022598 -s 3 -d -1 -p ARP -e 86 -c 2 -a 0 -i 0 -k MAC
h -t 0.511022598 -s 3 -d -1 -p ARP -e 86 -c 2 -a 0 -i 0 -k MAC
r -t 0.511711343 -s 5 -d -1 -p ARP -e 28 -c 2 -a 0 -i 0 -k MAC
+ -t 0.511721343 -s 5 -d -1 -p ACK -e 38 -c 2 -a 0 -i 0 -k MAC 
- -t 0.511721343 -s 5 -d -1 -p ACK -e 38 -c 2 -a 0 -i 0 -k MAC
h -t 0.511721343 -s 5 -d -1 -p ACK -e 38 -c 2 -a 0 -i 0 -k MAC
r -t 0.512026088 -s 3 -d -1 -p ACK -e 38 -c 2 -a 0 -i 0 -k MAC
+ -t 0.512095343 -s 5 -d -1 -p RTS -e 44 -c 2 -a 0 -i 0 -k MAC 
- -t 0.512095343 -s 5 -d -1 -p RTS -e 44 -c 2 -a 0 -i 0 -k MAC
h -t 0.512095343 -s 5 -d -1 -p RTS -e 44 -c 2 -a 0 -i 0 -k MAC
r -t 0.512448088 -s 3 -d -1 -p RTS -e 44 -c 2 -a 0 -i 0 -k MAC
+ -t 0.512458088 -s 3 -d -1 -p CTS -e 38 -c 2 -a 0 -i 0 -k MAC 
- -t 0.512458088 -s 3 -d -1 -p CTS -e 38 -c 2 -a 0 -i 0 -k MAC
h -t 0.512458088 -s 3 -d -1 -p CTS -e 38 -c 2 -a 0 -i 0 -k MAC
r -t 0.512762834 -s 5 -d -1 -p CTS -e 38 -c 2 -a 0 -i 0 -k MAC
+ -t 0.512772834 -s 5 -d 3 -p AODV -e 102 -c 2 -a 0 -i 0 -k MAC 
- -t 0.512772834 -s 5 -d 3 -p AODV -e 102 -c 2 -a 0 -i 0 -k MAC
h -t 0.512772834 -s 5 -d 3 -p AODV -e 102 -c 2 -a 0 -i 0 -k MAC
r -t 0.513589579 -s 3 -d 3 -p AODV -e 44 -c 2 -a 0 -i 0 -k MAC
+ -t 0.513599579 -s 3 -d -1 -p ACK -e 38 -c 2 -a 0 -i 0 -k MAC 
- -t 0.513599579 -s 3 -d -1 -p ACK -e 38 -c 2 -a 0 -i 0 -k MAC
h -t 0.513599579 -s 3 -d -1 -p ACK -e 38 -c 2 -a 0 -i 0 -k MAC
+ -t 0.513614579 -s 3 -d 1 -p AODV -e 44 -c 2 -a 0 -i 0 -k RTR 
- -t 0.513614579 -s 3 -d 1 -p AODV -e 44 -c 2 -a 0 -i 0 -k RTR
h -t 0.513614579 -s 3 -d 1 -p AODV -e 44 -c 2 -a 0 -i 0 -k RTR
r -t 0.513904324 -s 5 -d -1 -p ACK -e 38 -c 2 -a 0 -i 0 -k MAC
+ -t 0.514133579 -s 3 -d -1 -p ARP -e 86 -c 2 -a 0 -i 0 -k MAC 
- -t 0.514133579 -s 3 -d -1 -p ARP -e 86 -c 2 -a 0 -i 0 -k MAC
h -t 0.514133579 -s 3 -d -1 -p ARP -e 86 -c 2 -a 0 -i 0 -k MAC
r -t 0.514821912 -s 4 -d -1 -p ARP -e 28 -c 2 -a 0 -i 0 -k MAC
r -t 0.514822050 -s 2 -d -1 -p ARP -e 28 -c 2 -a 0 -i 0 -k MAC
r -t 0.514822324 -s 1 -d -1 -p ARP -e 28 -c 2 -a 0 -i 0 -k MAC
r -t 0.514822324 -s 5 -d -1 -p ARP -e 28 -c 2 -a 0 -i 0 -k MAC
+ -t 0.515117324 -s 1 -d -1 -p RTS -e 44 -c 2 -a 0 -i 0 -k MAC 
- -t 0.515117324 -s 1 -d -1 -p RTS -e 44 -c 2 -a 0 -i 0 -k MAC
h -t 0.515117324 -s 1 -d -1 -p RTS -e 44 -c 2 -a 0 -i 0 -k MAC
r -t 0.515470070 -s 3 -d -1 -p RTS -e 44 -c 2 -a 0 -i 0 -k MAC
+ -t 0.515480070 -s 3 -d -1 -p CTS -e 38 -c 2 -a 0 -i 0 -k MAC 
- -t 0.515480070 -s 3 -d -1 -p CTS -e 38 -c 2 -a 0 -i 0 -k MAC
h -t 0.515480070 -s 3 -d -1 -p CTS -e 38 -c 2 -a 0 -i 0 -k MAC
r -t 0.515784815 -s 1 -d -1 -p CTS -e 38 -c 2 -a 0 -i 0 -k MAC
+ -t 0.515794815 -s 1 -d -1 -p ARP -e 86 -c 2 -a 0 -i 0 -k MAC 
- -t 0.515794815 -s 1 -d -1 -p ARP -e 86 -c 2 -a 0 -i 0 -k MAC
h -t 0.515794815 -s 1 -d -1 -p ARP -e 86 -c 2 -a 0 -i 0 -k MAC
+ -t 0.516390299 -s 4 -d -1 -p AODV -e 48 -c 2 -a 0 -i 0 -k RTR 
- -t 0.516390299 -s 4 -d -1 -p AODV -e 48 -c 2 -a 0 -i 0 -k RTR
h -t 0.516390299 -s 4 -d -1 -p AODV -e 48 -c 2 -a 0 -i 0 -k RTR
r -t 0.516483561 -s 3 -d -1 -p ARP -e 28 -c 2 -a 0 -i 0 -k MAC
+ -t 0.516493561 -s 3 -d -1 -p ACK -e 38 -c 2 -a 0 -i 0 -k MAC 
- -t 0.516493561 -s 3 -d -1 -p ACK -e 38 -c 2 -a 0 -i 0 -k MAC
h -t 0.516493561 -s 3 -d -1 -p ACK -e 38 -c 2 -a 0 -i 0 -k MAC
r -t 0.516798306 -s 1 -d -1 -p ACK -e 38 -c 2 -a 0 -i 0 -k MAC
+ -t 0.517027561 -s 3 -d -1 -p RTS -e 44 -c 2 -a 0 -i 0 -k MAC 
- -t 0.517027561 -s 3 -d -1 -p RTS -e 44 -c 2 -a 0 -i 0 -k MAC
h -t 0.517027561 -s 3 -d -1 -p RTS -e 44 -c 2 -a 0 -i 0 -k MAC
r -t 0.517380306 -s 1 -d -1 -p RTS -e 44 -c 2 -a 0 -i 0 -k MAC
+ -t 0.517390306 -s 1 -d -1 -p CTS -e 38 -c 2 -a 0 -i 0 -k MAC 
- -t 0.517390306 -s 1 -d -1 -p CTS -e 38 -c 2 -a 0 -i 0 -k MAC
h -t 0.517390306 -s 1 -d -1 -p CTS -e 38 -c 2 -a 0 -i 0 -k MAC
r -t 0.517695051 -s 3 -d -1 -p CTS -e 38 -c 2 -a 0 -i 0 -k MAC
+ -t 0.517705051 -s 3 -d 1 -p AODV -e 102 -c 2 -a 0 -i 0 -k MAC 
- -t 0.517705051 -s 3 -d 1 -p AODV -e 102 -c 2 -a 0 -i 0 -k MAC
h -t 0.517705051 -s 3 -d 1 -p AODV -e 102 -c 2 -a 0 -i 0 -k MAC
r -t 0.518521797 -s 1 -d 1 -p AODV -e 44 -c 2 -a 0 -i 0 -k MAC
+ -t 0.518531797 -s 1 -d -1 -p ACK -e 38 -c 2 -a 0 -i 0 -k MAC 
- -t 0.518531797 -s 1 -d -1 -p ACK -e 38 -c 2 -a 0 -i 0 -k MAC
h -t 0.518531797 -s 1 -d -1 -p ACK -e 38 -c 2 -a 0 -i 0 -k MAC
+ -t 0.518546797 -s 1 -d 0 -p AODV -e 44 -c 2 -a 0 -i 0 -k RTR 
- -t 0.518546797 -s 1 -d 0 -p AODV -e 44 -c 2 -a 0 -i 0 -k RTR
h -t 0.518546797 -s 1 -d 0 -p AODV -e 44 -c 2 -a 0 -i 0 -k RTR
r -t 0.518836542 -s 3 -d -1 -p ACK -e 38 -c 2 -a 0 -i 0 -k MAC
+ -t 0.519305797 -s 1 -d -1 -p ARP -e 86 -c 2 -a 0 -i 0 -k MAC 
- -t 0.519305797 -s 1 -d -1 -p ARP -e 86 -c 2 -a 0 -i 0 -k MAC
h -t 0.519305797 -s 1 -d -1 -p ARP -e 86 -c 2 -a 0 -i 0 -k MAC
r -t 0.519994130 -s 2 -d -1 -p ARP -e 28 -c 2 -a 0 -i 0 -k MAC
r -t 0.519994268 -s 0 -d -1 -p ARP -e 28 -c 2 -a 0 -i 0 -k MAC
r -t 0.519994542 -s 3 -d -1 -p ARP -e 28 -c 2 -a 0 -i 0 -k MAC
+ -t 0.520409268 -s 0 -d -1 -p RTS -e 44 -c 2 -a 0 -i 0 -k MAC 
- -t 0.520409268 -s 0 -d -1 -p RTS -e 44 -c 2 -a 0 -i 0 -k MAC
h -t 0.520409268 -s 0 -d -1 -p RTS -e 44 -c 2 -a 0 -i 0 -k MAC
r -t 0.520761739 -s 1 -d -1 -p RTS -e 44 -c 2 -a 0 -i 0 -k MAC
+ -t 0.520771739 -s 1 -d -1 -p CTS -e 38 -c 2 -a 0 -i 0 -k MAC 
- -t 0.520771739 -s 1 -d -1 -p CTS -e 38 -c 2 -a 0 -i 0 -k MAC
h -t 0.520771739 -s 1 -d -1 -p CTS -e 38 -c 2 -a 0 -i 0 -k MAC
r -t 0.521076211 -s 0 -d -1 -p CTS -e 38 -c 2 -a 0 -i 0 -k MAC
+ -t 0.521086211 -s 0 -d -1 -p ARP -e 86 -c 2 -a 0 -i 0 -k MAC 
- -t 0.521086211 -s 0 -d -1 -p ARP -e 86 -c 2 -a 0 -i 0 -k MAC
h -t 0.521086211 -s 0 -d -1 -p ARP -e 86 -c 2 -a 0 -i 0 -k MAC
r -t 0.521774682 -s 1 -d -1 -p ARP -e 28 -c 2 -a 0 -i 0 -k MAC
+ -t 0.521784682 -s 1 -d -1 -p ACK -e 38 -c 2 -a 0 -i 0 -k MAC 
- -t 0.521784682 -s 1 -d -1 -p ACK -e 38 -c 2 -a 0 -i 0 -k MAC
h -t 0.521784682 -s 1 -d -1 -p ACK -e 38 -c 2 -a 0 -i 0 -k MAC
r -t 0.522089154 -s 0 -d -1 -p ACK -e 38 -c 2 -a 0 -i 0 -k MAC
+ -t 0.522318682 -s 1 -d -1 -p RTS -e 44 -c 2 -a 0 -i 0 -k MAC 
- -t 0.522318682 -s 1 -d -1 -p RTS -e 44 -c 2 -a 0 -i 0 -k MAC
h -t 0.522318682 -s 1 -d -1 -p RTS -e 44 -c 2 -a 0 -i 0 -k MAC
r -t 0.522671154 -s 0 -d -1 -p RTS -e 44 -c 2 -a 0 -i 0 -k MAC
+ -t 0.522681154 -s 0 -d -1 -p CTS -e 38 -c 2 -a 0 -i 0 -k MAC 
- -t 0.522681154 -s 0 -d -1 -p CTS -e 38 -c 2 -a 0 -i 0 -k MAC
h -t 0.522681154 -s 0 -d -1 -p CTS -e 38 -c 2 -a 0 -i 0 -k MAC
r -t 0.522985625 -s 1 -d -1 -p CTS -e 38 -c 2 -a 0 -i 0 -k MAC
+ -t 0.522995625 -s 1 -d 0 -p AODV -e 102 -c 2 -a 0 -i 0 -k MAC 
- -t 0.522995625 -s 1 -d 0 -p AODV -e 102 -c 2 -a 0 -i 0 -k MAC
h -t 0.522995625 -s 1 -d 0 -p AODV -e 102 -c 2 -a 0 -i 0 -k MAC
r -t 0.523812096 -s 0 -d 0 -p AODV -e 44 -c 2 -a 0 -i 0 -k MAC
+ -t 0.523822096 -s 0 -d -1 -p ACK -e 38 -c 2 -a 0 -i 0 -k MAC 
- -t 0.523822096 -s 0 -d -1 -p ACK -e 38 -c 2 -a 0 -i 0 -k MAC
h -t 0.523822096 -s 0 -d -1 -p ACK -e 38 -c 2 -a 0 -i 0 -k MAC
+ -t 0.523837096 -s 0 -d 1 -p cbr -e 1020 -c 2 -a 0 -i 0 -k RTR 
- -t 0.523837096 -s 0 -d 1 -p cbr -e 1020 -c 2 -a 0 -i 0 -k RTR
h -t 0.523837096 -s 0 -d 1 -p cbr -e 1020 -c 2 -a 0 -i 0 -k RTR
r -t 0.524126568 -s 1 -d -1 -p ACK -e 38 -c 2 -a 0 -i 0 -k MAC
+ -t 0.524476096 -s 0 -d -1 -p RTS -e 44 -c 2 -a 0 -i 0 -k MAC 
- -t 0.524476096 -s 0 -d -1 -p RTS -e 44 -c 2 -a 0 -i 0 -k MAC
h -t 0.524476096 -s 0 -d -1 -p RTS -e 44 -c 2 -a 0 -i 0 -k MAC
r -t 0.524828568 -s 1 -d -1 -p RTS -e 44 -c 2 -a 0 -i 0 -k MAC
+ -t 0.524838568 -s 1 -d -1 -p CTS -e 38 -c 2 -a 0 -i 0 -k MAC 
- -t 0.524838568 -s 1 -d -1 -p CTS -e 38 -c 2 -a 0 -i 0 -k MAC
h -t 0.524838568 -s 1 -d -1 -p CTS -e 38 -c 2 -a 0 -i 0 -k MAC
r -t 0.525143039 -s 0 -d -1 -p CTS -e 38 -c 2 -a 0 -i 0 -k MAC
+ -t 0.525153039 -s 0 -d 1 -p cbr -e 1078 -c 2 -a 0 -i 0 -k MAC 
- -t 0.525153039 -s 0 -d 1 -p cbr -e 1078 -c 2 -a 0 -i 0 -k MAC
h -t 0.525153039 -s 0 -d 1 -p cbr -e 1078 -c 2 -a 0 -i 0 -k MAC
+ -t 0.530000000 -s 0 -d -1 -p cbr -e 1000 -c 2 -a 0 -i 1 -k AGT 
- -t 0.530000000 -s 0 -d -1 -p cbr -e 1000 -c 2 -a 0 -i 1 -k AGT
h -t 0.530000000 -s 0 -d -1 -p cbr -e 1000 -c 2 -a 0 -i 1 -k AGT
+ -t 0.530000000 -s 0 -d 1 -p cbr -e 1020 -c 2 -a 0 -i 1 -k RTR 
- -t 0.530000000 -s 0 -d 1 -p cbr -e 1020 -c 2 -a 0 -i 1 -k RTR
h -t 0.530000000 -s 0 -d 1 -p cbr -e 1020 -c 2 -a 0 -i 1 -k RTR
r -t 0.533777511 -s 1 -d 1 -p cbr -e 1020 -c 2 -a 0 -i 0 -k MAC
+ -t 0.533787511 -s 1 -d -1 -p ACK -e 38 -c 2 -a 0 -i 0 -k MAC 
- -t 0.533787511 -s 1 -d -1 -p ACK -e 38 -c 2 -a 0 -i 0 -k MAC
h -t 0.533787511 -s 1 -d -1 -p ACK -e 38 -c 2 -a 0 -i 0 -k MAC
+ -t 0.533802511 -s 1 -d 3 -p cbr -e 1020 -c 2 -a 0 -i 0 -k RTR 
- -t 0.533802511 -s 1 -d 3 -p cbr -e 1020 -c 2 -a 0 -i 0 -k RTR
h -t 0.533802511 -s 1 -d 3 -p cbr -e 1020 -c 2 -a 0 -i 0 -k RTR
r -t 0.534091982 -s 0 -d -1 -p ACK -e 38 -c 2 -a 0 -i 0 -k MAC
+ -t 0.534221511 -s 1 -d -1 -p RTS -e 44 -c 2 -a 0 -i 0 -k MAC 
- -t 0.534221511 -s 1 -d -1 -p RTS -e 44 -c 2 -a 0 -i 0 -k MAC
h -t 0.534221511 -s 1 -d -1 -p RTS -e 44 -c 2 -a 0 -i 0 -k MAC
r -t 0.534574256 -s 3 -d -1 -p RTS -e 44 -c 2 -a 0 -i 0 -k MAC
+ -t 0.534584256 -s 3 -d -1 -p CTS -e 38 -c 2 -a 0 -i 0 -k MAC 
- -t 0.534584256 -s 3 -d -1 -p CTS -e 38 -c 2 -a 0 -i 0 -k MAC
h -t 0.534584256 -s 3 -d -1 -p CTS -e 38 -c 2 -a 0 -i 0 -k MAC
r -t 0.534889001 -s 1 -d -1 -p CTS -e 38 -c 2 -a 0 -i 0 -k MAC
+ -t 0.534899001 -s 1 -d 3 -p cbr -e 1078 -c 2 -a 0 -i 0 -k MAC 
- -t 0.534899001 -s 1 -d 3 -p cbr -e 1078 -c 2 -a 0 -i 0 -k MAC
h -t 0.534899001 -s 1 -d 3 -p cbr -e 1078 -c 2 -a 0 -i 0 -k MAC
r -t 0.543523747 -s 3 -d 3 -p cbr -e 1020 -c 2 -a 0 -i 0 -k MAC
+ -t 0.543533747 -s 3 -d -1 -p ACK -e 38 -c 2 -a 0 -i 0 -k MAC 
- -t 0.543533747 -s 3 -d -1 -p ACK -e 38 -c 2 -a 0 -i 0 -k MAC
h -t 0.543533747 -s 3 -d -1 -p ACK -e 38 -c 2 -a 0 -i 0 -k MAC
+ -t 0.543548747 -s 3 -d 5 -p cbr -e 1020 -c 2 -a 0 -i 0 -k RTR 
- -t 0.543548747 -s 3 -d 5 -p cbr -e 1020 -c 2 -a 0 -i 0 -k RTR
h -t 0.543548747 -s 3 -d 5 -p cbr -e 1020 -c 2 -a 0 -i 0 -k RTR
r -t 0.543838492 -s 1 -d -1 -p ACK -e 38 -c 2 -a 0 -i 0 -k MAC
+ -t 0.543967747 -s 3 -d -1 -p RTS -e 44 -c 2 -a 0 -i 0 -k MAC 
- -t 0.543967747 -s 3 -d -1 -p RTS -e 44 -c 2 -a 0 -i 0 -k MAC
h -t 0.543967747 -s 3 -d -1 -p RTS -e 44 -c 2 -a 0 -i 0 -k MAC
r -t 0.544320492 -s 5 -d -1 -p RTS -e 44 -c 2 -a 0 -i 0 -k MAC
+ -t 0.544330492 -s 5 -d -1 -p CTS -e 38 -c 2 -a 0 -i 0 -k MAC 
- -t 0.544330492 -s 5 -d -1 -p CTS -e 38 -c 2 -a 0 -i 0 -k MAC
h -t 0.544330492 -s 5 -d -1 -p CTS -e 38 -c 2 -a 0 -i 0 -k MAC
r -t 0.544635237 -s 3 -d -1 -p CTS -e 38 -c 2 -a 0 -i 0 -k MAC
+ -t 0.544645237 -s 3 -d 5 -p cbr -e 1078 -c 2 -a 0 -i 0 -k MAC 
- -t 0.544645237 -s 3 -d 5 -p cbr -e 1078 -c 2 -a 0 -i 0 -k MAC
h -t 0.544645237 -s 3 -d 5 -p cbr -e 1078 -c 2 -a 0 -i 0 -k MAC
r -t 0.553269983 -s 5 -d 5 -p cbr -e 1020 -c 2 -a 0 -i 0 -k MAC
+ -t 0.553279983 -s 5 -d -1 -p ACK -e 38 -c 2 -a 0 -i 0 -k MAC 
- -t 0.553279983 -s 5 -d -1 -p ACK -e 38 -c 2 -a 0 -i 0 -k MAC
h -t 0.553279983 -s 5 -d -1 -p ACK -e 38 -c 2 -a 0 -i 0 -k MAC
r -t 0.553294983 -s 5 -d 5 -p cbr -e 1020 -c 2 -a 0 -i 0 -k AGT
r -t 0.553584728 -s 3 -d -1 -p ACK -e 38 -c 2 -a 0 -i 0 -k MAC
+ -t 0.553764439 -s 0 -d -1 -p RTS -e 44 -c 2 -a 0 -i 0 -k MAC 
- -t 0.553764439 -s 0 -d -1 -p RTS -e 44 -c 2 -a 0 -i 0 -k MAC
h -t 0.553764439 -s 0 -d -1 -p RTS -e 44 -c 2 -a 0 -i 0 -k MAC
r -t 0.554116911 -s 1 -d -1 -p RTS -e 44 -c 2 -a 0 -i 0 -k MAC
+ -t 0.554126911 -s 1 -d -1 -p CTS -e 38 -c 2 -a 0 -i 0 -k MAC 
- -t 0.554126911 -s 1 -d -1 -p CTS -e 38 -c 2 -a 0 -i 0 -k MAC
h -t 0.554126911 -s 1 -d -1 -p CTS -e 38 -c 2 -a 0 -i 0 -k MAC
r -t 0.554431382 -s 0 -d -1 -p CTS -e 38 -c 2 -a 0 -i 0 -k MAC
+ -t 0.554441382 -s 0 -d 1 -p cbr -e 1078 -c 2 -a 0 -i 1 -k MAC 
- -t 0.554441382 -s 0 -d 1 -p cbr -e 1078 -c 2 -a 0 -i 1 -k MAC
h -t 0.554441382 -s 0 -d 1 -p cbr -e 1078 -c 2 -a 0 -i 1 -k MAC
+ -t 0.560000000 -s 0 -d -1 -p cbr -e 1000 -c 2 -a 0 -i 2 -k AGT 
- -t 0.560000000 -s 0 -d -1 -p cbr -e 1000 -c 2 -a 0 -i 2 -k AGT
h -t 0.560000000 -s 0 -d -1 -p cbr -e 1000 -c 2 -a 0 -i 2 -k AGT
+ -t 0.560000000 -s 0 -d 1 -p cbr -e 1020 -c 2 -a 0 -i 2 -k RTR 
- -t 0.560000000 -s 0 -d 1 -p cbr -e 1020 -c 2 -a 0 -i 2 -k RTR
h -t 0.560000000 -s 0 -d 1 -p cbr -e 1020 -c 2 -a 0 -i 2 -k RTR
r -t 0.563065853 -s 1 -d 1 -p cbr -e 1020 -c 2 -a 0 -i 1 -k MAC
+ -t 0.563075853 -s 1 -d -1 -p ACK -e 38 -c 2 -a 0 -i 0 -k MAC 
- -t 0.563075853 -s 1 -d -1 -p ACK -e 38 -c 2 -a 0 -i 0 -k MAC
h -t 0.563075853 -s 1 -d -1 -p ACK -e 38 -c 2 -a 0 -i 0 -k MAC
+ -t 0.563090853 -s 1 -d 3 -p cbr -e 1020 -c 2 -a 0 -i 1 -k RTR 
- -t 0.563090853 -s 1 -d 3 -p cbr -e 1020 -c 2 -a 0 -i 1 -k RTR
h -t 0.563090853 -s 1 -d 3 -p cbr -e 1020 -c 2 -a 0 -i 1 -k RTR
r -t 0.563380325 -s 0 -d -1 -p ACK -e 38 -c 2 -a 0 -i 0 -k MAC
+ -t 0.563530325 -s 0 -d -1 -p RTS -e 44 -c 2 -a 0 -i 0 -k MAC 
- -t 0.563530325 -s 0 -d -1 -p RTS -e 44 -c 2 -a 0 -i 0 -k MAC
h -t 0.563530325 -s 0 -d -1 -p RTS -e 44 -c 2 -a 0 -i 0 -k MAC
r -t 0.563882796 -s 1 -d -1 -p RTS -e 44 -c 2 -a 0 -i 0 -k MAC
+ -t 0.563892796 -s 1 -d -1 -p CTS -e 38 -c 2 -a 0 -i 0 -k MAC 
- -t 0.563892796 -s 1 -d -1 -p CTS -e 38 -c 2 -a 0 -i 0 -k MAC
h -t 0.563892796 -s 1 -d -1 -p CTS -e 38 -c 2 -a 0 -i 0 -k MAC
r -t 0.564197268 -s 0 -d -1 -p CTS -e 38 -c 2 -a 0 -i 0 -k MAC
+ -t 0.564207268 -s 0 -d 1 -p cbr -e 1078 -c 2 -a 0 -i 2 -k MAC 
- -t 0.564207268 -s 0 -d 1 -p cbr -e 1078 -c 2 -a 0 -i 2 -k MAC
h -t 0.564207268 -s 0 -d 1 -p cbr -e 1078 -c 2 -a 0 -i 2 -k MAC
r -t 0.572831739 -s 1 -d 1 -p cbr -e 1020 -c 2 -a 0 -i 2 -k MAC
+ -t 0.572841739 -s 1 -d -1 -p ACK -e 38 -c 2 -a 0 -i 0 -k MAC 
- -t 0.572841739 -s 1 -d -1 -p ACK -e 38 -c 2 -a 0 -i 0 -k MAC
h -t 0.572841739 -s 1 -d -1 -p ACK -e 38 -c 2 -a 0 -i 0 -k MAC
+ -t 0.572856739 -s 1 -d 3 -p cbr -e 1020 -c 2 -a 0 -i 2 -k RTR 
- -t 0.572856739 -s 1 -d 3 -p cbr -e 1020 -c 2 -a 0 -i 2 -k RTR
h -t 0.572856739 -s 1 -d 3 -p cbr -e 1020 -c 2 -a 0 -i 2 -k RTR
r -t 0.573146210 -s 0 -d -1 -p ACK -e 38 -c 2 -a 0 -i 0 -k MAC
+ -t 0.573315739 -s 1 -d -1 -p RTS -e 44 -c 2 -a 0 -i 0 -k MAC 
- -t 0.573315739 -s 1 -d -1 -p RTS -e 44 -c 2 -a 0 -i 0 -k MAC
h -t 0.573315739 -s 1 -d -1 -p RTS -e 44 -c 2 -a 0 -i 0 -k MAC
r -t 0.573668484 -s 3 -d -1 -p RTS -e 44 -c 2 -a 0 -i 0 -k MAC
+ -t 0.573678484 -s 3 -d -1 -p CTS -e 38 -c 2 -a 0 -i 0 -k MAC 
- -t 0.573678484 -s 3 -d -1 -p CTS -e 38 -c 2 -a 0 -i 0 -k MAC
h -t 0.573678484 -s 3 -d -1 -p CTS -e 38 -c 2 -a 0 -i 0 -k MAC
r -t 0.573983230 -s 1 -d -1 -p CTS -e 38 -c 2 -a 0 -i 0 -k MAC
+ -t 0.573993230 -s 1 -d 3 -p cbr -e 1078 -c 2 -a 0 -i 1 -k MAC 
- -t 0.573993230 -s 1 -d 3 -p cbr -e 1078 -c 2 -a 0 -i 1 -k MAC
h -t 0.573993230 -s 1 -d 3 -p cbr -e 1078 -c 2 -a 0 -i 1 -k MAC
r -t 0.582617975 -s 3 -d 3 -p cbr -e 1020 -c 2 -a 0 -i 1 -k MAC
+ -t 0.582627975 -s 3 -d -1 -p ACK -e 38 -c 2 -a 0 -i 0 -k MAC 
- -t 0.582627975 -s 3 -d -1 -p ACK -e 38 -c 2 -a 0 -i 0 -k MAC
h -t 0.582627975 -s 3 -d -1 -p ACK -e 38 -c 2 -a 0 -i 0 -k MAC
+ -t 0.582642975 -s 3 -d 5 -p cbr -e 1020 -c 2 -a 0 -i 1 -k RTR 
- -t 0.582642975 -s 3 -d 5 -p cbr -e 1020 -c 2 -a 0 -i 1 -k RTR
h -t 0.582642975 -s 3 -d 5 -p cbr -e 1020 -c 2 -a 0 -i 1 -k RTR
r -t 0.582932721 -s 1 -d -1 -p ACK -e 38 -c 2 -a 0 -i 0 -k MAC
+ -t 0.583172284 -s 4 -d -1 -p AODV -e 106 -c 2 -a 0 -i 0 -k MAC 
- -t 0.583172284 -s 4 -d -1 -p AODV -e 106 -c 2 -a 0 -i 0 -k MAC
h -t 0.583172284 -s 4 -d -1 -p AODV -e 106 -c 2 -a 0 -i 0 -k MAC
r -t 0.584020617 -s 3 -d -1 -p AODV -e 48 -c 2 -a 0 -i 0 -k MAC
r -t 0.584020755 -s 5 -d -1 -p AODV -e 48 -c 2 -a 0 -i 0 -k MAC
r -t 0.584021029 -s 2 -d -1 -p AODV -e 48 -c 2 -a 0 -i 0 -k MAC
r -t 0.584045617 -s 3 -d -1 -p AODV -e 48 -c 2 -a 0 -i 0 -k RTR
r -t 0.584045755 -s 5 -d -1 -p AODV -e 48 -c 2 -a 0 -i 0 -k RTR
r -t 0.584046029 -s 2 -d -1 -p AODV -e 48 -c 2 -a 0 -i 0 -k RTR
+ -t 0.584110617 -s 3 -d -1 -p RTS -e 44 -c 2 -a 0 -i 0 -k MAC 
- -t 0.584110617 -s 3 -d -1 -p RTS -e 44 -c 2 -a 0 -i 0 -k MAC
h -t 0.584110617 -s 3 -d -1 -p RTS -e 44 -c 2 -a 0 -i 0 -k MAC
r -t 0.584463363 -s 5 -d -1 -p RTS -e 44 -c 2 -a 0 -i 0 -k MAC
+ -t 0.584473363 -s 5 -d -1 -p CTS -e 38 -c 2 -a 0 -i 0 -k MAC 
- -t 0.584473363 -s 5 -d -1 -p CTS -e 38 -c 2 -a 0 -i 0 -k MAC
h -t 0.584473363 -s 5 -d -1 -p CTS -e 38 -c 2 -a 0 -i 0 -k MAC
r -t 0.584778108 -s 3 -d -1 -p CTS -e 38 -c 2 -a 0 -i 0 -k MAC
+ -t 0.584788108 -s 3 -d 5 -p cbr -e 1078 -c 2 -a 0 -i 1 -k MAC 
- -t 0.584788108 -s 3 -d 5 -p cbr -e 1078 -c 2 -a 0 -i 1 -k MAC
h -t 0.584788108 -s 3 -d 5 -p cbr -e 1078 -c 2 -a 0 -i 1 -k MAC
+ -t 0.590000000 -s 0 -d -1 -p cbr -e 1000 -c 2 -a 0 -i 3 -k AGT 
- -t 0.590000000 -s 0 -d -1 -p cbr -e 1000 -c 2 -a 0 -i 3 -k AGT
h -t 0.590000000 -s 0 -d -1 -p cbr -e 1000 -c 2 -a 0 -i 3 -k AGT
+ -t 0.590000000 -s 0 -d 1 -p cbr -e 1020 -c 2 -a 0 -i 3 -k RTR 
- -t 0.590000000 -s 0 -d 1 -p cbr -e 1020 -c 2 -a 0 -i 3 -k RTR
h -t 0.590000000 -s 0 -d 1 -p cbr -e 1020 -c 2 -a 0 -i 3 -k RTR
r -t 0.593412853 -s 5 -d 5 -p cbr -e 1020 -c 2 -a 0 -i 1 -k MAC
+ -t 0.593422853 -s 5 -d -1 -p ACK -e 38 -c 2 -a 0 -i 0 -k MAC 
- -t 0.593422853 -s 5 -d -1 -p ACK -e 38 -c 2 -a 0 -i 0 -k MAC
h -t 0.593422853 -s 5 -d -1 -p ACK -e 38 -c 2 -a 0 -i 0 -k MAC
r -t 0.593437853 -s 5 -d 5 -p cbr -e 1020 -c 2 -a 0 -i 1 -k AGT
r -t 0.593727599 -s 3 -d -1 -p ACK -e 38 -c 2 -a 0 -i 0 -k MAC
+ -t 0.594162344 -s 1 -d -1 -p RTS -e 44 -c 2 -a 0 -i 0 -k MAC 
- -t 0.594162344 -s 1 -d -1 -p RTS -e 44 -c 2 -a 0 -i 0 -k MAC
h -t 0.594162344 -s 1 -d -1 -p RTS -e 44 -c 2 -a 0 -i 0 -k MAC
r -t 0.594515089 -s 3 -d -1 -p RTS -e 44 -c 2 -a 0 -i 0 -k MAC
+ -t 0.594525089 -s 3 -d -1 -p CTS -e 38 -c 2 -a 0 -i 0 -k MAC 
- -t 0.594525089 -s 3 -d -1 -p CTS -e 38 -c 2 -a 0 -i 0 -k MAC
h -t 0.594525089 -s 3 -d -1 -p CTS -e 38 -c 2 -a 0 -i 0 -k MAC
r -t 0.594829835 -s 1 -d -1 -p CTS -e 38 -c 2 -a 0 -i 0 -k MAC
+ -t 0.594839835 -s 1 -d 3 -p cbr -e 1078 -c 2 -a 0 -i 2 -k MAC 
- -t 0.594839835 -s 1 -d 3 -p cbr -e 1078 -c 2 -a 0 -i 2 -k MAC
h -t 0.594839835 -s 1 -d 3 -p cbr -e 1078 -c 2 -a 0 -i 2 -k MAC
r -t 0.603464580 -s 3 -d 3 -p cbr -e 1020 -c 2 -a 0 -i 2 -k MAC
+ -t 0.603474580 -s 3 -d -1 -p ACK -e 38 -c 2 -a 0 -i 0 -k MAC 
- -t 0.603474580 -s 3 -d -1 -p ACK -e 38 -c 2 -a 0 -i 0 -k MAC
h -t 0.603474580 -s 3 -d -1 -p ACK -e 38 -c 2 -a 0 -i 0 -k MAC
+ -t 0.603489580 -s 3 -d 5 -p cbr -e 1020 -c 2 -a 0 -i 2 -k RTR 
- -t 0.603489580 -s 3 -d 5 -p cbr -e 1020 -c 2 -a 0 -i 2 -k RTR
h -t 0.603489580 -s 3 -d 5 -p cbr -e 1020 -c 2 -a 0 -i 2 -k RTR
r -t 0.603779325 -s 1 -d -1 -p ACK -e 38 -c 2 -a 0 -i 0 -k MAC
+ -t 0.603948580 -s 3 -d -1 -p RTS -e 44 -c 2 -a 0 -i 0 -k MAC 
- -t 0.603948580 -s 3 -d -1 -p RTS -e 44 -c 2 -a 0 -i 0 -k MAC
h -t 0.603948580 -s 3 -d -1 -p RTS -e 44 -c 2 -a 0 -i 0 -k MAC
r -t 0.604301325 -s 5 -d -1 -p RTS -e 44 -c 2 -a 0 -i 0 -k MAC
+ -t 0.604311325 -s 5 -d -1 -p CTS -e 38 -c 2 -a 0 -i 0 -k MAC 
- -t 0.604311325 -s 5 -d -1 -p CTS -e 38 -c 2 -a 0 -i 0 -k MAC
h -t 0.604311325 -s 5 -d -1 -p CTS -e 38 -c 2 -a 0 -i 0 -k MAC
r -t 0.604616071 -s 3 -d -1 -p CTS -e 38 -c 2 -a 0 -i 0 -k MAC
+ -t 0.604626071 -s 3 -d 5 -p cbr -e 1078 -c 2 -a 0 -i 2 -k MAC 
- -t 0.604626071 -s 3 -d 5 -p cbr -e 1078 -c 2 -a 0 -i 2 -k MAC
h -t 0.604626071 -s 3 -d 5 -p cbr -e 1078 -c 2 -a 0 -i 2 -k MAC
r -t 0.613250816 -s 5 -d 5 -p cbr -e 1020 -c 2 -a 0 -i 2 -k MAC
+ -t 0.613260816 -s 5 -d -1 -p ACK -e 38 -c 2 -a 0 -i 0 -k MAC 
- -t 0.613260816 -s 5 -d -1 -p ACK -e 38 -c 2 -a 0 -i 0 -k MAC
h -t 0.613260816 -s 5 -d -1 -p ACK -e 38 -c 2 -a 0 -i 0 -k MAC
r -t 0.613275816 -s 5 -d 5 -p cbr -e 1020 -c 2 -a 0 -i 2 -k AGT
r -t 0.613565562 -s 3 -d -1 -p ACK -e 38 -c 2 -a 0 -i 0 -k MAC
+ -t 0.613745273 -s 0 -d -1 -p RTS -e 44 -c 2 -a 0 -i 0 -k MAC 
- -t 0.613745273 -s 0 -d -1 -p RTS -e 44 -c 2 -a 0 -i 0 -k MAC
h -t 0.613745273 -s 0 -d -1 -p RTS -e 44 -c 2 -a 0 -i 0 -k MAC
r -t 0.614097744 -s 1 -d -1 -p RTS -e 44 -c 2 -a 0 -i 0 -k MAC
+ -t 0.614107744 -s 1 -d -1 -p CTS -e 38 -c 2 -a 0 -i 0 -k MAC 
- -t 0.614107744 -s 1 -d -1 -p CTS -e 38 -c 2 -a 0 -i 0 -k MAC
h -t 0.614107744 -s 1 -d -1 -p CTS -e 38 -c 2 -a 0 -i 0 -k MAC
r -t 0.614412215 -s 0 -d -1 -p CTS -e 38 -c 2 -a 0 -i 0 -k MAC
+ -t 0.614422215 -s 0 -d 1 -p cbr -e 1078 -c 2 -a 0 -i 3 -k MAC 
- -t 0.614422215 -s 0 -d 1 -p cbr -e 1078 -c 2 -a 0 -i 3 -k MAC
h -t 0.614422215 -s 0 -d 1 -p cbr -e 1078 -c 2 -a 0 -i 3 -k MAC
+ -t 0.620000000 -s 0 -d -1 -p cbr -e 1000 -c 2 -a 0 -i 4 -k AGT 
- -t 0.620000000 -s 0 -d -1 -p cbr -e 1000 -c 2 -a 0 -i 4 -k AGT
h -t 0.620000000 -s 0 -d -1 -p cbr -e 1000 -c 2 -a 0 -i 4 -k AGT
+ -t 0.620000000 -s 0 -d 1 -p cbr -e 1020 -c 2 -a 0 -i 4 -k RTR 
- -t 0.620000000 -s 0 -d 1 -p cbr -e 1020 -c 2 -a 0 -i 4 -k RTR
h -t 0.620000000 -s 0 -d 1 -p cbr -e 1020 -c 2 -a 0 -i 4 -k RTR
r -t 0.623046687 -s 1 -d 1 -p cbr -e 1020 -c 2 -a 0 -i 3 -k MAC
+ -t 0.623056687 -s 1 -d -1 -p ACK -e 38 -c 2 -a 0 -i 0 -k MAC 
- -t 0.623056687 -s 1 -d -1 -p ACK -e 38 -c 2 -a 0 -i 0 -k MAC
h -t 0.623056687 -s 1 -d -1 -p ACK -e 38 -c 2 -a 0 -i 0 -k MAC
+ -t 0.623071687 -s 1 -d 3 -p cbr -e 1020 -c 2 -a 0 -i 3 -k RTR 
- -t 0.623071687 -s 1 -d 3 -p cbr -e 1020 -c 2 -a 0 -i 3 -k RTR
h -t 0.623071687 -s 1 -d 3 -p cbr -e 1020 -c 2 -a 0 -i 3 -k RTR
r -t 0.623361158 -s 0 -d -1 -p ACK -e 38 -c 2 -a 0 -i 0 -k MAC
+ -t 0.623630687 -s 1 -d -1 -p RTS -e 44 -c 2 -a 0 -i 0 -k MAC 
- -t 0.623630687 -s 1 -d -1 -p RTS -e 44 -c 2 -a 0 -i 0 -k MAC
h -t 0.623630687 -s 1 -d -1 -p RTS -e 44 -c 2 -a 0 -i 0 -k MAC
r -t 0.623983432 -s 3 -d -1 -p RTS -e 44 -c 2 -a 0 -i 0 -k MAC
+ -t 0.623993432 -s 3 -d -1 -p CTS -e 38 -c 2 -a 0 -i 0 -k MAC 
- -t 0.623993432 -s 3 -d -1 -p CTS -e 38 -c 2 -a 0 -i 0 -k MAC
h -t 0.623993432 -s 3 -d -1 -p CTS -e 38 -c 2 -a 0 -i 0 -k MAC
r -t 0.624298178 -s 1 -d -1 -p CTS -e 38 -c 2 -a 0 -i 0 -k MAC
+ -t 0.624308178 -s 1 -d 3 -p cbr -e 1078 -c 2 -a 0 -i 3 -k MAC 
- -t 0.624308178 -s 1 -d 3 -p cbr -e 1078 -c 2 -a 0 -i 3 -k MAC
h -t 0.624308178 -s 1 -d 3 -p cbr -e 1078 -c 2 -a 0 -i 3 -k MAC
r -t 0.632932923 -s 3 -d 3 -p cbr -e 1020 -c 2 -a 0 -i 3 -k MAC
+ -t 0.632942923 -s 3 -d -1 -p ACK -e 38 -c 2 -a 0 -i 0 -k MAC 
- -t 0.632942923 -s 3 -d -1 -p ACK -e 38 -c 2 -a 0 -i 0 -k MAC
h -t 0.632942923 -s 3 -d -1 -p ACK -e 38 -c 2 -a 0 -i 0 -k MAC
+ -t 0.632957923 -s 3 -d 5 -p cbr -e 1020 -c 2 -a 0 -i 3 -k RTR 
- -t 0.632957923 -s 3 -d 5 -p cbr -e 1020 -c 2 -a 0 -i 3 -k RTR
h -t 0.632957923 -s 3 -d 5 -p cbr -e 1020 -c 2 -a 0 -i 3 -k RTR
r -t 0.633247668 -s 1 -d -1 -p ACK -e 38 -c 2 -a 0 -i 0 -k MAC
+ -t 0.633516923 -s 3 -d -1 -p RTS -e 44 -c 2 -a 0 -i 0 -k MAC 
- -t 0.633516923 -s 3 -d -1 -p RTS -e 44 -c 2 -a 0 -i 0 -k MAC
h -t 0.633516923 -s 3 -d -1 -p RTS -e 44 -c 2 -a 0 -i 0 -k MAC
r -t 0.633869668 -s 5 -d -1 -p RTS -e 44 -c 2 -a 0 -i 0 -k MAC
+ -t 0.633879668 -s 5 -d -1 -p CTS -e 38 -c 2 -a 0 -i 0 -k MAC 
- -t 0.633879668 -s 5 -d -1 -p CTS -e 38 -c 2 -a 0 -i 0 -k MAC
h -t 0.633879668 -s 5 -d -1 -p CTS -e 38 -c 2 -a 0 -i 0 -k MAC
r -t 0.634184414 -s 3 -d -1 -p CTS -e 38 -c 2 -a 0 -i 0 -k MAC
+ -t 0.634194414 -s 3 -d 5 -p cbr -e 1078 -c 2 -a 0 -i 3 -k MAC 
- -t 0.634194414 -s 3 -d 5 -p cbr -e 1078 -c 2 -a 0 -i 3 -k MAC
h -t 0.634194414 -s 3 -d 5 -p cbr -e 1078 -c 2 -a 0 -i 3 -k MAC
r -t 0.642819159 -s 5 -d 5 -p cbr -e 1020 -c 2 -a 0 -i 3 -k MAC
+ -t 0.642829159 -s 5 -d -1 -p ACK -e 38 -c 2 -a 0 -i 0 -k MAC 
- -t 0.642829159 -s 5 -d -1 -p ACK -e 38 -c 2 -a 0 -i 0 -k MAC
h -t 0.642829159 -s 5 -d -1 -p ACK -e 38 -c 2 -a 0 -i 0 -k MAC
r -t 0.642844159 -s 5 -d 5 -p cbr -e 1020 -c 2 -a 0 -i 3 -k AGT
r -t 0.643133904 -s 3 -d -1 -p ACK -e 38 -c 2 -a 0 -i 0 -k MAC
+ -t 0.643313615 -s 0 -d -1 -p RTS -e 44 -c 2 -a 0 -i 0 -k MAC 
- -t 0.643313615 -s 0 -d -1 -p RTS -e 44 -c 2 -a 0 -i 0 -k MAC
h -t 0.643313615 -s 0 -d -1 -p RTS -e 44 -c 2 -a 0 -i 0 -k MAC
r -t 0.643666087 -s 1 -d -1 -p RTS -e 44 -c 2 -a 0 -i 0 -k MAC
+ -t 0.643676087 -s 1 -d -1 -p CTS -e 38 -c 2 -a 0 -i 0 -k MAC 
- -t 0.643676087 -s 1 -d -1 -p CTS -e 38 -c 2 -a 0 -i 0 -k MAC
h -t 0.643676087 -s 1 -d -1 -p CTS -e 38 -c 2 -a 0 -i 0 -k MAC
r -t 0.643980558 -s 0 -d -1 -p CTS -e 38 -c 2 -a 0 -i 0 -k MAC
+ -t 0.643990558 -s 0 -d 1 -p cbr -e 1078 -c 2 -a 0 -i 4 -k MAC 
- -t 0.643990558 -s 0 -d 1 -p cbr -e 1078 -c 2 -a 0 -i 4 -k MAC
h -t 0.643990558 -s 0 -d 1 -p cbr -e 1078 -c 2 -a 0 -i 4 -k MAC
+ -t 0.650000000 -s 0 -d -1 -p cbr -e 1000 -c 2 -a 0 -i 5 -k AGT 
- -t 0.650000000 -s 0 -d -1 -p cbr -e 1000 -c 2 -a 0 -i 5 -k AGT
h -t 0.650000000 -s 0 -d -1 -p cbr -e 1000 -c 2 -a 0 -i 5 -k AGT
+ -t 0.650000000 -s 0 -d 1 -p cbr -e 1020 -c 2 -a 0 -i 5 -k RTR 