M 0.00000 0 (0.00, 0.00, 0.00), (100.00, 100.00), 3000.00
M 0.00000 1 (0.00, 0.00, 0.00), (200.00, 200.00), 3000.00
M 0.00000 2 (0.00, 0.00, 0.00), (300.00, 200.00), 3000.00
M 0.00000 3 (0.00, 0.00, 0.00), (400.00, 300.00), 3000.00
M 0.00000 4 (0.00, 0.00, 0.00), (500.00, 300.00), 3000.00
M 0.00000 5 (0.00, 0.00, 0.00), (600.00, 400.00), 3000.00
s 0.500000000 _0_ AGT  --- 0 cbr 1000 [0 0 0 0] ------- [0:2 5:0 32 0] [0] 0 0
r 0.500000000 _0_ RTR  --- 0 cbr 1000 [0 0 0 0] ------- [0:2 5:0 32 0] [0] 0 0
s 0.500000000 _0_ RTR  --- 0 AODV 48 [0 0 0 0] ------- [0:255 -1:255 30 0] [0x2 1 1 [5 0] [0 4]] (REQUEST)
s 0.500235000 _0_ MAC  --- 0 AODV 106 [0 ffffffff 0 800] ------- [0:255 -1:255 30 0] [0x2 1 1 [5 0] [0 4]] (REQUEST)
r 0.501083471 _1_ MAC  --- 0 AODV 48 [0 ffffffff 0 800] ------- [0:255 -1:255 30 0] [0x2 1 1 [5 0] [0 4]] (REQUEST)
r 0.501083745 _2_ MAC  --- 0 AODV 48 [0 ffffffff 0 800] ------- [0:255 -1:255 30 0] [0x2 1 1 [5 0] [0 4]] (REQUEST)
r 0.501108471 _1_ RTR  --- 0 AODV 48 [0 ffffffff 0 800] ------- [0:255 -1:255 30 0] [0x2 1 1 [5 0] [0 4]] (REQUEST)
r 0.501108745 _2_ RTR  --- 0 AODV 48 [0 ffffffff 0 800] ------- [0:255 -1:255 30 0] [0x2 1 1 [5 0] [0 4]] (REQUEST)
s 0.503454489 _1_ RTR  --- 0 AODV 48 [0 ffffffff 0 800] ------- [1:255 -1:255 29 0] [0x2 2 1 [5 0] [0 4]] (REQUEST)
s 0.503789489 _1_ MAC  --- 0 AODV 106 [0 ffffffff 1 800] ------- [1:255 -1:255 29 0] [0x2 2 1 [5 0] [0 4]] (REQUEST)
r 0.504637822 _2_ MAC  --- 0 AODV 48 [0 ffffffff 1 800] ------- [1:255 -1:255 29 0] [0x2 2 1 [5 0] [0 4]] (REQUEST)
r 0.504637960 _0_ MAC  --- 0 AODV 48 [0 ffffffff 1 800] ------- [1:255 -1:255 29 0] [0x2 2 1 [5 0] [0 4]] (REQUEST)
r 0.504638234 _3_ MAC  --- 0 AODV 48 [0 ffffffff 1 800] ------- [1:255 -1:255 29 0] [0x2 2 1 [5 0] [0 4]] (REQUEST)
r 0.504662822 _2_ RTR  --- 0 AODV 48 [0 ffffffff 1 800] ------- [1:255 -1:255 29 0] [0x2 2 1 [5 0] [0 4]] (REQUEST)
r 0.504662960 _0_ RTR  --- 0 AODV 48 [0 ffffffff 1 800] ------- [1:255 -1:255 29 0] [0x2 2 1 [5 0] [0 4]] (REQUEST)
r 0.504663234 _3_ RTR  --- 0 AODV 48 [0 ffffffff 1 800] ------- [1:255 -1:255 29 0] [0x2 2 1 [5 0] [0 4]] (REQUEST)
s 0.506304688 _3_ RTR  --- 0 AODV 48 [0 ffffffff 1 800] ------- [3:255 -1:255 28 0] [0x2 3 1 [5 0] [0 4]] (REQUEST)
s 0.506919688 _3_ MAC  --- 0 AODV 106 [0 ffffffff 3 800] ------- [3:255 -1:255 28 0] [0x2 3 1 [5 0] [0 4]] (REQUEST)
s 0.507497397 _2_ RTR  --- 0 AODV 48 [0 ffffffff 0 800] ------- [2:255 -1:255 29 0] [0x2 2 1 [5 0] [0 4]] (REQUEST)
r 0.507768022 _4_ MAC  --- 0 AODV 48 [0 ffffffff 3 800] ------- [3:255 -1:255 28 0] [0x2 3 1 [5 0] [0 4]] (REQUEST)
r 0.507768160 _2_ MAC  --- 0 AODV 48 [0 ffffffff 3 800] ------- [3:255 -1:255 28 0] [0x2 3 1 [5 0] [0 4]] (REQUEST)
r 0.507768434 _1_ MAC  --- 0 AODV 48 [0 ffffffff 3 800] ------- [3:255 -1:255 28 0] [0x2 3 1 [5 0] [0 4]] (REQUEST)
r 0.507768434 _5_ MAC  --- 0 AODV 48 [0 ffffffff 3 800] ------- [3:255 -1:255 28 0] [0x2 3 1 [5 0] [0 4]] (REQUEST)
r 0.507793022 _4_ RTR  --- 0 AODV 48 [0 ffffffff 3 800] ------- [3:255 -1:255 28 0] [0x2 3 1 [5 0] [0 4]] (REQUEST)
r 0.507793160 _2_ RTR  --- 0 AODV 48 [0 ffffffff 3 800] ------- [3:255 -1:255 28 0] [0x2 3 1 [5 0] [0 4]] (REQUEST)
r 0.507793434 _1_ RTR  --- 0 AODV 48 [0 ffffffff 3 800] ------- [3:255 -1:255 28 0] [0x2 3 1 [5 0] [0 4]] (REQUEST)
r 0.507793434 _5_ RTR  --- 0 AODV 48 [0 ffffffff 3 800] ------- [3:255 -1:255 28 0] [0x2 3 1 [5 0] [0 4]] (REQUEST)
s 0.507793434 _5_ RTR  --- 0 AODV 44 [0 0 0 0] ------- [5:255 0:255 30 3] [0x4 1 [5 4] 10.000000] (REPLY)
s 0.507978160 _2_ MAC  --- 0 AODV 106 [0 ffffffff 2 800] ------- [2:255 -1:255 29 0] [0x2 2 1 [5 0] [0 4]] (REQUEST)
r 0.508826493 _1_ MAC  --- 0 AODV 48 [0 ffffffff 2 800] ------- [2:255 -1:255 29 0] [0x2 2 1 [5 0] [0 4]] (REQUEST)
r 0.508826631 _3_ MAC  --- 0 AODV 48 [0 ffffffff 2 800] ------- [2:255 -1:255 29 0] [0x2 2 1 [5 0] [0 4]] (REQUEST)
r 0.508826905 _0_ MAC  --- 0 AODV 48 [0 ffffffff 2 800] ------- [2:255 -1:255 29 0] [0x2 2 1 [5 0] [0 4]] (REQUEST)
r 0.508826905 _4_ MAC  --- 0 AODV 48 [0 ffffffff 2 800] ------- [2:255 -1:255 29 0] [0x2 2 1 [5 0] [0 4]] (REQUEST)
r 0.508851493 _1_ RTR  --- 0 AODV 48 [0 ffffffff 2 800] ------- [2:255 -1:255 29 0] [0x2 2 1 [5 0] [0 4]] (REQUEST)
r 0.508851631 _3_ RTR  --- 0 AODV 48 [0 ffffffff 2 800] ------- [2:255 -1:255 29 0] [0x2 2 1 [5 0] [0 4]] (REQUEST)
r 0.508851905 _0_ RTR  --- 0 AODV 48 [0 ffffffff 2 800] ------- [2:255 -1:255 29 0] [0x2 2 1 [5 0] [0 4]] (REQUEST)
r 0.508851905 _4_ RTR  --- 0 AODV 48 [0 ffffffff 2 800] ------- [2:255 -1:255 29 0] [0x2 2 1 [5 0] [0 4]] (REQUEST)
s 0.509281362 _5_ MAC  --- 0 ARP 86 [0 ffffffff 5 806] ------- [REQUEST 5/5 0/3]
r 0.509969833 _4_ MAC  --- 0 ARP 28 [0 ffffffff 5 806] ------- [REQUEST 5/5 0/3]
r 0.509970107 _3_ MAC  --- 0 ARP 28 [0 ffffffff 5 806] ------- [REQUEST 5/5 0/3]
s 0.510345107 _3_ MAC  --- 0 RTS 44 [52e 5 3 0] 
r 0.510697852 _5_ MAC  --- 0 RTS 44 [52e 5 3 0] 
s 0.510707852 _5_ MAC  --- 0 CTS 38 [3f4 3 0 0] 
r 0.511012598 _3_ MAC  --- 0 CTS 38 [3f4 3 0 0] 
s 0.511022598 _3_ MAC  --- 0 ARP 86 [13a 5 3 806] ------- [REPLY 3/3 5/5]
r 0.511711343 _5_ MAC  --- 0 ARP 28 [13a 5 3 806] ------- [REPLY 3/3 5/5]
s 0.511721343 _5_ MAC  --- 0 ACK 38 [0 3 0 0] 
r 0.512026088 _3_ MAC  --- 0 ACK 38 [0 3 0 0] 
s 0.512095343 _5_ MAC  --- 0 RTS 44 [5ae 3 5 0] 
r 0.512448088 _3_ MAC  --- 0 RTS 44 [5ae 3 5 0] 
s 0.512458088 _3_ MAC  --- 0 CTS 38 [474 5 0 0] 
r 0.512762834 _5_ MAC  --- 0 CTS 38 [474 5 0 0] 
s 0.512772834 _5_ MAC  --- 0 AODV 102 [13a 3 5 800] ------- [5:255 0:255 30 3] [0x4 1 [5 4] 10.000000] (REPLY)
r 0.513589579 _3_ MAC  --- 0 AODV 44 [13a 3 5 800] ------- [5:255 0:255 30 3] [0x4 1 [5 4] 10.000000] (REPLY)
s 0.513599579 _3_ MAC  --- 0 ACK 38 [0 5 0 0] 
r 0.513614579 _3_ RTR  --- 0 AODV 44 [13a 3 5 800] ------- [5:255 0:255 30 3] [0x4 1 [5 4] 10.000000] (REPLY)
f 0.513614579 _3_ RTR  --- 0 AODV 44 [13a 3 5 800] ------- [5:255 0:255 29 1] [0x4 2 [5 4] 10.000000] (REPLY)
r 0.513904324 _5_ MAC  --- 0 ACK 38 [0 5 0 0] 
s 0.514133579 _3_ MAC  --- 0 ARP 86 [0 ffffffff 3 806] ------- [REQUEST 3/3 0/1]
r 0.514821912 _4_ MAC  --- 0 ARP 28 [0 ffffffff 3 806] ------- [REQUEST 3/3 0/1]
r 0.514822050 _2_ MAC  --- 0 ARP 28 [0 ffffffff 3 806] ------- [REQUEST 3/3 0/1]
r 0.514822324 _1_ MAC  --- 0 ARP 28 [0 ffffffff 3 806] ------- [REQUEST 3/3 0/1]
r 0.514822324 _5_ MAC  --- 0 ARP 28 [0 ffffffff 3 806] ------- [REQUEST 3/3 0/1]
s 0.515117324 _1_ MAC  --- 0 RTS 44 [52e 3 1 0] 
r 0.515470070 _3_ MAC  --- 0 RTS 44 [52e 3 1 0] 
s 0.515480070 _3_ MAC  --- 0 CTS 38 [3f4 1 0 0] 
r 0.515784815 _1_ MAC  --- 0 CTS 38 [3f4 1 0 0] 
s 0.515794815 _1_ MAC  --- 0 ARP 86 [13a 3 1 806] ------- [REPLY 1/1 3/3]
s 0.516390299 _4_ RTR  --- 0 AODV 48 [0 ffffffff 3 800] ------- [4:255 -1:255 27 0] [0x2 4 1 [5 0] [0 4]] (REQUEST)
r 0.516483561 _3_ MAC  --- 0 ARP 28 [13a 3 1 806] ------- [REPLY 1/1 3/3]
s 0.516493561 _3_ MAC  --- 0 ACK 38 [0 1 0 0] 
r 0.516798306 _1_ MAC  --- 0 ACK 38 [0 1 0 0] 
s 0.517027561 _3_ MAC  --- 0 RTS 44 [5ae 1 3 0] 
r 0.517380306 _1_ MAC  --- 0 RTS 44 [5ae 1 3 0] 
s 0.517390306 _1_ MAC  --- 0 CTS 38 [474 3 0 0] 
r 0.517695051 _3_ MAC  --- 0 CTS 38 [474 3 0 0] 
s 0.517705051 _3_ MAC  --- 0 AODV 102 [13a 1 3 800] ------- [5:255 0:255 29 1] [0x4 2 [5 4] 10.000000] (REPLY)
r 0.518521797 _1_ MAC  --- 0 AODV 44 [13a 1 3 800] ------- [5:255 0:255 29 1] [0x4 2 [5 4] 10.000000] (REPLY)
s 0.518531797 _1_ MAC  --- 0 ACK 38 [0 3 0 0] 
r 0.518546797 _1_ RTR  --- 0 AODV 44 [13a 1 3 800] ------- [5:255 0:255 29 1] [0x4 2 [5 4] 10.000000] (REPLY)
f 0.518546797 _1_ RTR  --- 0 AODV 44 [13a 1 3 800] ------- [5:255 0:255 28 0] [0x4 3 [5 4] 10.000000] (REPLY)
r 0.518836542 _3_ MAC  --- 0 ACK 38 [0 3 0 0] 
s 0.519305797 _1_ MAC  --- 0 ARP 86 [0 ffffffff 1 806] ------- [REQUEST 1/1 0/0]
r 0.519994130 _2_ MAC  --- 0 ARP 28 [0 ffffffff 1 806] ------- [REQUEST 1/1 0/0]
r 0.519994268 _0_ MAC  --- 0 ARP 28 [0 ffffffff 1 806] ------- [REQUEST 1/1 0/0]
r 0.519994542 _3_ MAC  --- 0 ARP 28 [0 ffffffff 1 806] ------- [REQUEST 1/1 0/0]
s 0.520409268 _0_ MAC  --- 0 RTS 44 [52e 1 0 0] 
r 0.520761739 _1_ MAC  --- 0 RTS 44 [52e 1 0 0] 
s 0.520771739 _1_ MAC  --- 0 CTS 38 [3f4 0 0 0] 
r 0.521076211 _0_ MAC  --- 0 CTS 38 [3f4 0 0 0] 
s 0.521086211 _0_ MAC  --- 0 ARP 86 [13a 1 0 806] ------- [REPLY 0/0 1/1]
r 0.521774682 _1_ MAC  --- 0 ARP 28 [13a 1 0 806] ------- [REPLY 0/0 1/1]
s 0.521784682 _1_ MAC  --- 0 ACK 38 [0 0 0 0] 
r 0.522089154 _0_ MAC  --- 0 ACK 38 [0 0 0 0] 
s 0.522318682 _1_ MAC  --- 0 RTS 44 [5ae 0 1 0] 
r 0.522671154 _0_ MAC  --- 0 RTS 44 [5ae 0 1 0] 
s 0.522681154 _0_ MAC  --- 0 CTS 38 [474 1 0 0] 
r 0.522985625 _1_ MAC  --- 0 CTS 38 [474 1 0 0] 
s 0.522995625 _1_ MAC  --- 0 AODV 102 [13a 0 1 800] ------- [5:255 0:255 28 0] [0x4 3 [5 4] 10.000000] (REPLY)
r 0.523812096 _0_ MAC  --- 0 AODV 44 [13a 0 1 800] ------- [5:255 0:255 28 0] [0x4 3 [5 4] 10.000000] (REPLY)
s 0.523822096 _0_ MAC  --- 0 ACK 38 [0 1 0 0] 
r 0.523837096 _0_ RTR  --- 0 AODV 44 [13a 0 1 800] ------- [5:255 0:255 28 0] [0x4 3 [5 4] 10.000000] (REPLY)
s 0.523837096 _0_ RTR  --- 0 cbr 1020 [0 0 0 0] ------- [0:2 5:0 30 1] [0] 0 0
r 0.524126568 _1_ MAC  --- 0 ACK 38 [0 1 0 0] 
s 0.524476096 _0_ MAC  --- 0 RTS 44 [242e 1 0 0] 
r 0.524828568 _1_ MAC  --- 0 RTS 44 [242e 1 0 0] 
s 0.524838568 _1_ MAC  --- 0 CTS 38 [22f4 0 0 0] 
r 0.525143039 _0_ MAC  --- 0 CTS 38 [22f4 0 0 0] 
s 0.525153039 _0_ MAC  --- 0 cbr 1078 [13a 1 0 800] ------- [0:2 5:0 30 1] [0] 0 0
s 0.530000000 _0_ AGT  --- 1 cbr 1000 [0 0 0 0] ------- [0:2 5:0 32 0] [1] 0 0
r 0.530000000 _0_ RTR  --- 1 cbr 1000 [0 0 0 0] ------- [0:2 5:0 32 0] [1] 0 0
s 0.530000000 _0_ RTR  --- 1 cbr 1020 [0 0 0 0] ------- [0:2 5:0 30 1] [1] 0 0
r 0.533777511 _1_ MAC  --- 0 cbr 1020 [13a 1 0 800] ------- [0:2 5:0 30 1] [0] 1 0
s 0.533787511 _1_ MAC  --- 0 ACK 38 [0 0 0 0] 
r 0.533802511 _1_ RTR  --- 0 cbr 1020 [13a 1 0 800] ------- [0:2 5:0 30 1] [0] 1 0
f 0.533802511 _1_ RTR  --- 0 cbr 1020 [13a 1 0 800] ------- [0:2 5:0 29 3] [0] 1 0
r 0.534091982 _0_ MAC  --- 0 ACK 38 [0 0 0 0] 
s 0.534221511 _1_ MAC  --- 0 RTS 44 [242e 3 1 0] 
r 0.534574256 _3_ MAC  --- 0 RTS 44 [242e 3 1 0] 
s 0.534584256 _3_ MAC  --- 0 CTS 38 [22f4 1 0 0] 
r 0.534889001 _1_ MAC  --- 0 CTS 38 [22f4 1 0 0] 
s 0.534899001 _1_ MAC  --- 0 cbr 1078 [13a 3 1 800] ------- [0:2 5:0 29 3] [0] 1 0
r 0.543523747 _3_ MAC  --- 0 cbr 1020 [13a 3 1 800] ------- [0:2 5:0 29 3] [0] 2 0
s 0.543533747 _3_ MAC  --- 0 ACK 38 [0 1 0 0] 
r 0.543548747 _3_ RTR  --- 0 cbr 1020 [13a 3 1 800] ------- [0:2 5:0 29 3] [0] 2 0
f 0.543548747 _3_ RTR  --- 0 cbr 1020 [13a 3 1 800] ------- [0:2 5:0 28 5] [0] 2 0
r 0.543838492 _1_ MAC  --- 0 ACK 38 [0 1 0 0] 
s 0.543967747 _3_ MAC  --- 0 RTS 44 [242e 5 3 0] 
r 0.544320492 _5_ MAC  --- 0 RTS 44 [242e 5 3 0] 
s 0.544330492 _5_ MAC  --- 0 CTS 38 [22f4 3 0 0] 
r 0.544635237 _3_ MAC  --- 0 CTS 38 [22f4 3 0 0] 
s 0.544645237 _3_ MAC  --- 0 cbr 1078 [13a 5 3 800] ------- [0:2 5:0 28 5] [0] 2 0
r 0.553269983 _5_ MAC  --- 0 cbr 1020 [13a 5 3 800] ------- [0:2 5:0 28 5] [0] 3 0
s 0.553279983 _5_ MAC  --- 0 ACK 38 [0 3 0 0] 
r 0.553294983 _5_ AGT  --- 0 cbr 1020 [13a 5 3 800] ------- [0:2 5:0 28 5] [0] 3 0
r 0.553584728 _3_ MAC  --- 0 ACK 38 [0 3 0 0] 
s 0.553764439 _0_ MAC  --- 0 RTS 44 [242e 1 0 0] 
r 0.554116911 _1_ MAC  --- 0 RTS 44 [242e 1 0 0] 
s 0.554126911 _1_ MAC  --- 0 CTS 38 [22f4 0 0 0] 
r 0.554431382 _0_ MAC  --- 0 CTS 38 [22f4 0 0 0] 
s 0.554441382 _0_ MAC  --- 1 cbr 1078 [13a 1 0 800] ------- [0:2 5:0 30 1] [1] 0 0
s 0.560000000 _0_ AGT  --- 2 cbr 1000 [0 0 0 0] ------- [0:2 5:0 32 0] [2] 0 0
r 0.560000000 _0_ RTR  --- 2 cbr 1000 [0 0 0 0] ------- [0:2 5:0 32 0] [2] 0 0
s 0.560000000 _0_ RTR  --- 2 cbr 1020 [0 0 0 0] ------- [0:2 5:0 30 1] [2] 0 0
r 0.563065853 _1_ MAC  --- 1 cbr 1020 [13a 1 0 800] ------- [0:2 5:0 30 1] [1] 1 0
s 0.563075853 _1_ MAC  --- 0 ACK 38 [0 0 0 0] 
r 0.563090853 _1_ RTR  --- 1 cbr 1020 [13a 1 0 800] ------- [0:2 5:0 30 1] [1] 1 0
f 0.563090853 _1_ RTR  --- 1 cbr 1020 [13a 1 0 800] ------- [0:2 5:0 29 3] [1] 1 0
r 0.563380325 _0_ MAC  --- 0 ACK 38 [0 0 0 0] 
s 0.563530325 _0_ MAC  --- 0 RTS 44 [242e 1 0 0] 
r 0.563882796 _1_ MAC  --- 0 RTS 44 [242e 1 0 0] 
s 0.563892796 _1_ MAC  --- 0 CTS 38 [22f4 0 0 0] 
r 0.564197268 _0_ MAC  --- 0 CTS 38 [22f4 0 0 0] 
s 0.564207268 _0_ MAC  --- 2 cbr 1078 [13a 1 0 800] ------- [0:2 5:0 30 1] [2] 0 0
r 0.572831739 _1_ MAC  --- 2 cbr 1020 [13a 1 0 800] ------- [0:2 5:0 30 1] [2] 1 0
s 0.572841739 _1_ MAC  --- 0 ACK 38 [0 0 0 0] 
r 0.572856739 _1_ RTR  --- 2 cbr 1020 [13a 1 0 800] ------- [0:2 5:0 30 1] [2] 1 0
f 0.572856739 _1_ RTR  --- 2 cbr 1020 [13a 1 0 800] ------- [0:2 5:0 29 3] [2] 1 0
r 0.573146210 _0_ MAC  --- 0 ACK 38 [0 0 0 0] 
s 0.573315739 _1_ MAC  --- 0 RTS 44 [242e 3 1 0] 
r 0.573668484 _3_ MAC  --- 0 RTS 44 [242e 3 1 0] 
s 0.573678484 _3_ MAC  --- 0 CTS 38 [22f4 1 0 0] 
r 0.573983230 _1_ MAC  --- 0 CTS 38 [22f4 1 0 0] 
s 0.573993230 _1_ MAC  --- 1 cbr 1078 [13a 3 1 800] ------- [0:2 5:0 29 3] [1] 1 0
r 0.582617975 _3_ MAC  --- 1 cbr 1020 [13a 3 1 800] ------- [0:2 5:0 29 3] [1] 2 0
s 0.582627975 _3_ MAC  --- 0 ACK 38 [0 1 0 0] 
r 0.582642975 _3_ RTR  --- 1 cbr 1020 [13a 3 1 800] ------- [0:2 5:0 29 3] [1] 2 0
f 0.582642975 _3_ RTR  --- 1 cbr 1020 [13a 3 1 800] ------- [0:2 5:0 28 5] [1] 2 0
r 0.582932721 _1_ MAC  --- 0 ACK 38 [0 1 0 0] 
s 0.583172284 _4_ MAC  --- 0 AODV 106 [0 ffffffff 4 800] ------- [4:255 -1:255 27 0] [0x2 4 1 [5 0] [0 4]] (REQUEST)
r 0.584020617 _3_ MAC  --- 0 AODV 48 [0 ffffffff 4 800] ------- [4:255 -1:255 27 0] [0x2 4 1 [5 0] [0 4]] (REQUEST)
r 0.584020755 _5_ MAC  --- 0 AODV 48 [0 ffffffff 4 800] ------- [4:255 -1:255 27 0] [0x2 4 1 [5 0] [0 4]] (REQUEST)
r 0.584021029 _2_ MAC  --- 0 AODV 48 [0 ffffffff 4 800] ------- [4:255 -1:255 27 0] [0x2 4 1 [5 0] [0 4]] (REQUEST)
r 0.584045617 _3_ RTR  --- 0 AODV 48 [0 ffffffff 4 800] ------- [4:255 -1:255 27 0] [0x2 4 1 [5 0] [0 4]] (REQUEST)
r 0.584045755 _5_ RTR  --- 0 AODV 48 [0 ffffffff 4 800] ------- [4:255 -1:255 27 0] [0x2 4 1 [5 0] [0 4]] (REQUEST)
r 0.584046029 _2_ RTR  --- 0 AODV 48 [0 ffffffff 4 800] ------- [4:255 -1:255 27 0] [0x2 4 1 [5 0] [0 4]] (REQUEST)
s 0.584110617 _3_ MAC  --- 0 RTS 44 [242e 5 3 0] 
r 0.584463363 _5_ MAC  --- 0 RTS 44 [242e 5 3 0] 
s 0.584473363 _5_ MAC  --- 0 CTS 38 [22f4 3 0 0] 
r 0.584778108 _3_ MAC  --- 0 CTS 38 [22f4 3 0 0] 
s 0.584788108 _3_ MAC  --- 1 cbr 1078 [13a 5 3 800] ------- [0:2 5:0 28 5] [1] 2 0
s 0.590000000 _0_ AGT  --- 3 cbr 1000 [0 0 0 0] ------- [0:2 5:0 32 0] [3] 0 0
r 0.590000000 _0_ RTR  --- 3 cbr 1000 [0 0 0 0] ------- [0:2 5:0 32 0] [3] 0 0
s 0.590000000 _0_ RTR  --- 3 cbr 1020 [0 0 0 0] ------- [0:2 5:0 30 1] [3] 0 0
r 0.593412853 _5_ MAC  --- 1 cbr 1020 [13a 5 3 800] ------- [0:2 5:0 28 5] [1] 3 0
s 0.593422853 _5_ MAC  --- 0 ACK 38 [0 3 0 0] 
r 0.593437853 _5_ AGT  --- 1 cbr 1020 [13a 5 3 800] ------- [0:2 5:0 28 5] [1] 3 0
r 0.593727599 _3_ MAC  --- 0 ACK 38 [0 3 0 0] 
s 0.594162344 _1_ MAC  --- 0 RTS 44 [242e 3 1 0] 
r 0.594515089 _3_ MAC  --- 0 RTS 44 [242e 3 1 0] 
s 0.594525089 _3_ MAC  --- 0 CTS 38 [22f4 1 0 0] 
r 0.594829835 _1_ MAC  --- 0 CTS 38 [22f4 1 0 0] 
s 0.594839835 _1_ MAC  --- 2 cbr 1078 [13a 3 1 800] ------- [0:2 5:0 29 3] [2] 1 0
r 0.603464580 _3_ MAC  --- 2 cbr 1020 [13a 3 1 800] ------- [0:2 5:0 29 3] [2] 2 0
s 0.603474580 _3_ MAC  --- 0 ACK 38 [0 1 0 0] 
r 0.603489580 _3_ RTR  --- 2 cbr 1020 [13a 3 1 800] ------- [0:2 5:0 29 3] [2] 2 0
f 0.603489580 _3_ RTR  --- 2 cbr 1020 [13a 3 1 800] ------- [0:2 5:0 28 5] [2] 2 0
r 0.603779325 _1_ MAC  --- 0 ACK 38 [0 1 0 0] 
s 0.603948580 _3_ MAC  --- 0 RTS 44 [242e 5 3 0] 
r 0.604301325 _5_ MAC  --- 0 RTS 44 [242e 5 3 0] 
s 0.604311325 _5_ MAC  --- 0 CTS 38 [22f4 3 0 0] 
r 0.604616071 _3_ MAC  --- 0 CTS 38 [22f4 3 0 0] 
s 0.604626071 _3_ MAC  --- 2 cbr 1078 [13a 5 3 800] ------- [0:2 5:0 28 5] [2] 2 0
r 0.613250816 _5_ MAC  --- 2 cbr 1020 [13a 5 3 800] ------- [0:2 5:0 28 5] [2] 3 0
s 0.613260816 _5_ MAC  --- 0 ACK 38 [0 3 0 0] 
r 0.613275816 _5_ AGT  --- 2 cbr 1020 [13a 5 3 800] ------- [0:2 5:0 28 5] [2] 3 0
r 0.613565562 _3_ MAC  --- 0 ACK 38 [0 3 0 0] 
s 0.613745273 _0_ MAC  --- 0 RTS 44 [242e 1 0 0] 
r 0.614097744 _1_ MAC  --- 0 RTS 44 [242e 1 0 0] 
s 0.614107744 _1_ MAC  --- 0 CTS 38 [22f4 0 0 0] 
r 0.614412215 _0_ MAC  --- 0 CTS 38 [22f4 0 0 0] 
s 0.614422215 _0_ MAC  --- 3 cbr 1078 [13a 1 0 800] ------- [0:2 5:0 30 1] [3] 0 0
s 0.620000000 _0_ AGT  --- 4 cbr 1000 [0 0 0 0] ------- [0:2 5:0 32 0] [4] 0 0
r 0.620000000 _0_ RTR  --- 4 cbr 1000 [0 0 0 0] ------- [0:2 5:0 32 0] [4] 0 0
s 0.620000000 _0_ RTR  --- 4 cbr 1020 [0 0 0 0] ------- [0:2 5:0 30 1] [4] 0 0
r 0.623046687 _1_ MAC  --- 3 cbr 1020 [13a 1 0 800] ------- [0:2 5:0 30 1] [3] 1 0
s 0.623056687 _1_ MAC  --- 0 ACK 38 [0 0 0 0] 
r 0.623071687 _1_ RTR  --- 3 cbr 1020 [13a 1 0 800] ------- [0:2 5:0 30 1] [3] 1 0
f 0.623071687 _1_ RTR  --- 3 cbr 1020 [13a 1 0 800] ------- [0:2 5:0 29 3] [3] 1 0
r 0.623361158 _0_ MAC  --- 0 ACK 38 [0 0 0 0] 
s 0.623630687 _1_ MAC  --- 0 RTS 44 [242e 3 1 0] 
r 0.623983432 _3_ MAC  --- 0 RTS 44 [242e 3 1 0] 
s 0.623993432 _3_ MAC  --- 0 CTS 38 [22f4 1 0 0] 
r 0.624298178 _1_ MAC  --- 0 CTS 38 [22f4 1 0 0] 
s 0.624308178 _1_ MAC  --- 3 cbr 1078 [13a 3 1 800] ------- [0:2 5:0 29 3] [3] 1 0
r 0.632932923 _3_ MAC  --- 3 cbr 1020 [13a 3 1 800] ------- [0:2 5:0 29 3] [3] 2 0
s 0.632942923 _3_ MAC  --- 0 ACK 38 [0 1 0 0] 
r 0.632957923 _3_ RTR  --- 3 cbr 1020 [13a 3 1 800] ------- [0:2 5:0 29 3] [3] 2 0
f 0.632957923 _3_ RTR  --- 3 cbr 1020 [13a 3 1 800] ------- [0:2 5:0 28 5] [3] 2 0
r 0.633247668 _1_ MAC  --- 0 ACK 38 [0 1 0 0] 
s 0.633516923 _3_ MAC  --- 0 RTS 44 [242e 5 3 0] 
r 0.633869668 _5_ MAC  --- 0 RTS 44 [242e 5 3 0] 
s 0.633879668 _5_ MAC  --- 0 CTS 38 [22f4 3 0 0] 
r 0.634184414 _3_ MAC  --- 0 CTS 38 [22f4 3 0 0] 
s 0.634194414 _3_ MAC  --- 3 cbr 1078 [13a 5 3 800] ------- [0:2 5:0 28 5] [3] 2 0
r 0.642819159 _5_ MAC  --- 3 cbr 1020 [13a 5 3 800] ------- [0:2 5:0 28 5] [3] 3 0
s 0.642829159 _5_ MAC  --- 0 ACK 38 [0 3 0 0] 
r 0.642844159 _5_ AGT  --- 3 cbr 1020 [13a 5 3 800] ------- [0:2 5:0 28 5] [3] 3 0
r 0.643133904 _3_ MAC  --- 0 ACK 38 [0 3 0 0] 
s 0.643313615 _0_ MAC  --- 0 RTS 44 [242e 1 0 0] 
r 0.643666087 _1_ MAC  --- 0 RTS 44 [242e 1 0 0] 
s 0.643676087 _1_ MAC  --- 0 CTS 38 [22f4 0 0 0] 
r 0.643980558 _0_ MAC  --- 0 CTS 38 [22f4 0 0 0] 
s 0.643990558 _0_ MAC  --- 4 cbr 1078 [13a 1 0 800] ------- [0:2 5:0 30 1] [4] 0 0
s 0.650000000 _0_ AGT  --- 5 cbr 1000 [0 0 0 0] ------- [0:2 5:0 32 0] [5] 0 0
r 0.650000000 _0_ RTR  --- 5 cbr 1000 [0 0 0 0] ------- [0:2 5:0 32 0] [5] 0 0
s 0.650000000 _0_ RTR  --- 5 cbr 1020 [0 0 0 0] ------- [0:2 5:0 30 1] [5] 0 0
r 0.652615030 _1_ MAC  --- 4 cbr 1020 [13a 1 0 800] ------- [0:2 5:0 30 1] [4] 1 0
s 0.652625030 _1_ MAC  --- 0 ACK 38 [0 0 0 0] 
r 0.652640030 _1_ RTR  --- 4 cbr 1020 [13a 1 0 800] ------- [0:2 5:0 30 1] [4] 1 0
f 0.652640030 _1_ RTR  --- 4 cbr 1020 [13a 1 0 800] ------- [0:2 5:0 29 3] [4] 1 0
r 0.652929501 _0_ MAC  --- 0 ACK 38 [0 0 0 0] 
s 0.652979501 _0_ MAC  --- 0 RTS 44 [242e 1 0 0] 
r 0.653331973 _1_ MAC  --- 0 RTS 44 [242e 1 0 0] 
s 0.653341973 _1_ MAC  --- 0 CTS 38 [22f4 0 0 0] 
r 0.653646444 _0_ MAC  --- 0 CTS 38 [22f4 0 0 0] 
s 0.653656444 _0_ MAC  --- 5 cbr 1078 [13a 1 0 800] ------- [0:2 5:0 30 1] [5] 0 0
r 0.662280915 _1_ MAC  --- 5 cbr 1020 [13a 1 0 800] ------- [0:2 5:0 30 1] [5] 1 0
s 0.662290915 _1_ MAC  --- 0 ACK 38 [0 0 0 0] 
r 0.662305915 _1_ RTR  --- 5 cbr 1020 [13a 1 0 800] ------- [0:2 5:0 30 1] [5] 1 0
f 0.662305915 _1_ RTR  --- 5 cbr 1020 [13a 1 0 800] ------- [0:2 5:0 29 3] [5] 1 0
r 0.662595387 _0_ MAC  --- 0 ACK 38 [0 0 0 0] 
s 0.663124915 _1_ MAC  --- 0 RTS 44 [242e 3 1 0] 
r 0.663477661 _3_ MAC  --- 0 RTS 44 [242e 3 1 0] 
s 0.663487661 _3_ MAC  --- 0 CTS 38 [22f4 1 0 0] 
r 0.663792406 _1_ MAC  --- 0 CTS 38 [22f4 1 0 0] 
s 0.663802406 _1_ MAC  --- 4 cbr 1078 [13a 3 1 800] ------- [0:2 5:0 29 3] [4] 1 0
r 0.672427151 _3_ MAC  --- 4 cbr 1020 [13a 3 1 800] ------- [0:2 5:0 29 3] [4] 2 0
s 0.672437151 _3_ MAC  --- 0 ACK 38 [0 1 0 0] 
r 0.672452151 _3_ RTR  --- 4 cbr 1020 [13a 3 1 800] ------- [0:2 5:0 29 3] [4] 2 0
f 0.672452151 _3_ RTR  --- 4 cbr 1020 [13a 3 1 800] ------- [0:2 5:0 28 5] [4] 2 0
r 0.672741897 _1_ MAC  --- 0 ACK 38 [0 1 0 0] 
s 0.672951897 _1_ MAC  --- 0 RTS 44 [242e 3 1 0] 
r 0.673304642 _3_ MAC  --- 0 RTS 44 [242e 3 1 0] 
s 0.673314642 _3_ MAC  --- 0 CTS 38 [22f4 1 0 0] 
r 0.673619387 _1_ MAC  --- 0 CTS 38 [22f4 1 0 0] 
s 0.673629387 _1_ MAC  --- 5 cbr 1078 [13a 3 1 800] ------- [0:2 5:0 29 3] [5] 1 0
s 0.680000000 _0_ AGT  --- 6 cbr 1000 [0 0 0 0] ------- [0:2 5:0 32 0] [6] 0 0
r 0.680000000 _0_ RTR  --- 6 cbr 1000 [0 0 0 0] ------- [0:2 5:0 32 0] [6] 0 0
s 0.680000000 _0_ RTR  --- 6 cbr 1020 [0 0 0 0] ------- [0:2 5:0 30 1] [6] 0 0
r 0.682254133 _3_ MAC  --- 5 cbr 1020 [13a 3 1 800] ------- [0:2 5:0 29 3] [5] 2 0
s 0.682264133 _3_ MAC  --- 0 ACK 38 [0 1 0 0] 
r 0.682279133 _3_ RTR  --- 5 cbr 1020 [13a 3 1 800] ------- [0:2 5:0 29 3] [5] 2 0
f 0.682279133 _3_ RTR  --- 5 cbr 1020 [13a 3 1 800] ------- [0:2 5:0 28 5] [5] 2 0
r 0.682568878 _1_ MAC  --- 0 ACK 38 [0 1 0 0] 
s 0.682778133 _3_ MAC  --- 0 RTS 44 [242e 5 3 0] 
r 0.683130878 _5_ MAC  --- 0 RTS 44 [242e 5 3 0] 
s 0.683140878 _5_ MAC  --- 0 CTS 38 [22f4 3 0 0] 
r 0.683445624 _3_ MAC  --- 0 CTS 38 [22f4 3 0 0] 
s 0.683455624 _3_ MAC  --- 4 cbr 1078 [13a 5 3 800] ------- [0:2 5:0 28 5] [4] 2 0
r 0.692080369 _5_ MAC  --- 4 cbr 1020 [13a 5 3 800] ------- [0:2 5:0 28 5] [4] 3 0
s 0.692090369 _5_ MAC  --- 0 ACK 38 [0 3 0 0] 
r 0.692105369 _5_ AGT  --- 4 cbr 1020 [13a 5 3 800] ------- [0:2 5:0 28 5] [4] 3 0
r 0.692395114 _3_ MAC  --- 0 ACK 38 [0 3 0 0] 
s 0.692714825 _0_ MAC  --- 0 RTS 44 [242e 1 0 0] 
r 0.693067297 _1_ MAC  --- 0 RTS 44 [242e 1 0 0] 
s 0.693077297 _1_ MAC  --- 0 CTS 38 [22f4 0 0 0] 
r 0.693381768 _0_ MAC  --- 0 CTS 38 [22f4 0 0 0] 
s 0.693391768 _0_ MAC  --- 6 cbr 1078 [13a 1 0 800] ------- [0:2 5:0 30 1] [6] 0 0
r 0.702016240 _1_ MAC  --- 6 cbr 1020 [13a 1 0 800] ------- [0:2 5:0 30 1] [6] 1 0
s 0.702026240 _1_ MAC  --- 0 ACK 38 [0 0 0 0] 
r 0.702041240 _1_ RTR  --- 6 cbr 1020 [13a 1 0 800] ------- [0:2 5:0 30 1] [6] 1 0
f 0.702041240 _1_ RTR  --- 6 cbr 1020 [13a 1 0 800] ------- [0:2 5:0 29 3] [6] 1 0
r 0.702330711 _0_ MAC  --- 0 ACK 38 [0 0 0 0] 
s 0.702380240 _1_ MAC  --- 0 RTS 44 [242e 3 1 0] 
r 0.702732985 _3_ MAC  --- 0 RTS 44 [242e 3 1 0] 
s 0.702742985 _3_ MAC  --- 0 CTS 38 [22f4 1 0 0] 
r 0.703047730 _1_ MAC  --- 0 CTS 38 [22f4 1 0 0] 
s 0.703057730 _1_ MAC  --- 6 cbr 1078 [13a 3 1 800] ------- [0:2 5:0 29 3] [6] 1 0
s 0.710000000 _0_ AGT  --- 7 cbr 1000 [0 0 0 0] ------- [0:2 5:0 32 0] [7] 0 0
r 0.710000000 _0_ RTR  --- 7 cbr 1000 [0 0 0 0] ------- [0:2 5:0 32 0] [7] 0 0
s 0.710000000 _0_ RTR  --- 7 cbr 1020 [0 0 0 0] ------- [0:2 5:0 30 1] [7] 0 0
r 0.711682476 _3_ MAC  --- 6 cbr 1020 [13a 3 1 800] ------- [0:2 5:0 29 3] [6] 2 0
s 0.711692476 _3_ MAC  --- 0 ACK 38 [0 1 0 0] 
r 0.711707476 _3_ RTR  --- 6 cbr 1020 [13a 3 1 800] ------- [0:2 5:0 29 3] [6] 2 0
f 0.711707476 _3_ RTR  --- 6 cbr 1020 [13a 3 1 800] ------- [0:2 5:0 28 5] [6] 2 0
r 0.711997221 _1_ MAC  --- 0 ACK 38 [0 1 0 0] 
s 0.712086476 _3_ MAC  --- 0 RTS 44 [242e 5 3 0] 
r 0.712439221 _5_ MAC  --- 0 RTS 44 [242e 5 3 0] 
s 0.712449221 _5_ MAC  --- 0 CTS 38 [22f4 3 0 0] 
r 0.712753966 _3_ MAC  --- 0 CTS 38 [22f4 3 0 0] 
s 0.712763966 _3_ MAC  --- 5 cbr 1078 [13a 5 3 800] ------- [0:2 5:0 28 5] [5] 2 0
r 0.721388712 _5_ MAC  --- 5 cbr 1020 [13a 5 3 800] ------- [0:2 5:0 28 5] [5] 3 0
s 0.721398712 _5_ MAC  --- 0 ACK 38 [0 3 0 0] 
r 0.721413712 _5_ AGT  --- 5 cbr 1020 [13a 5 3 800] ------- [0:2 5:0 28 5] [5] 3 0
r 0.721703457 _3_ MAC  --- 0 ACK 38 [0 3 0 0] 
s 0.722033457 _3_ MAC  --- 0 RTS 44 [242e 5 3 0] 
r 0.722386202 _5_ MAC  --- 0 RTS 44 [242e 5 3 0] 
s 0.722396202 _5_ MAC  --- 0 CTS 38 [22f4 3 0 0] 
r 0.722700948 _3_ MAC  --- 0 CTS 38 [22f4 3 0 0] 
s 0.722710948 _3_ MAC  --- 6 cbr 1078 [13a 5 3 800] ------- [0:2 5:0 28 5] [6] 2 0
r 0.731335693 _5_ MAC  --- 6 cbr 1020 [13a 5 3 800] ------- [0:2 5:0 28 5] [6] 3 0
s 0.731345693 _5_ MAC  --- 0 ACK 38 [0 3 0 0] 
r 0.731360693 _5_ AGT  --- 6 cbr 1020 [13a 5 3 800] ------- [0:2 5:0 28 5] [6] 3 0
r 0.731650438 _3_ MAC  --- 0 ACK 38 [0 3 0 0] 
s 0.731770150 _0_ MAC  --- 0 RTS 44 [242e 1 0 0] 
r 0.732122621 _1_ MAC  --- 0 RTS 44 [242e 1 0 0] 
s 0.732132621 _1_ MAC  --- 0 CTS 38 [22f4 0 0 0] 
r 0.732437092 _0_ MAC  --- 0 CTS 38 [22f4 0 0 0] 
s 0.732447092 _0_ MAC  --- 7 cbr 1078 [13a 1 0 800] ------- [0:2 5:0 30 1] [7] 0 0
s 0.740000000 _0_ AGT  --- 8 cbr 1000 [0 0 0 0] ------- [0:2 5:0 32 0] [8] 0 0
r 0.740000000 _0_ RTR  --- 8 cbr 1000 [0 0 0 0] ------- [0:2 5:0 32 0] [8] 0 0
s 0.740000000 _0_ RTR  --- 8 cbr 1020 [0 0 0 0] ------- [0:2 5:0 30 1] [8] 0 0
r 0.741071564 _1_ MAC  --- 7 cbr 1020 [13a 1 0 800] ------- [0:2 5:0 30 1] [7] 1 0
s 0.741081564 _1_ MAC  --- 0 ACK 38 [0 0 0 0] 
r 0.741096564 _1_ RTR  --- 7 cbr 1020 [13a 1 0 800] ------- [0:2 5:0 30 1] [7] 1 0
f 0.741096564 _1_ RTR  --- 7 cbr 1020 [13a 1 0 800] ------- [0:2 5:0 29 3] [7] 1 0
r 0.741386035 _0_ MAC  --- 0 ACK 38 [0 0 0 0] 
s 0.741695564 _1_ MAC  --- 0 RTS 44 [242e 3 1 0] 
r 0.742048309 _3_ MAC  --- 0 RTS 44 [242e 3 1 0] 
s 0.742058309 _3_ MAC  --- 0 CTS 38 [22f4 1 0 0] 
r 0.742363055 _1_ MAC  --- 0 CTS 38 [22f4 1 0 0] 
s 0.742373055 _1_ MAC  --- 7 cbr 1078 [13a 3 1 800] ------- [0:2 5:0 29 3] [7] 1 0
r 0.750997800 _3_ MAC  --- 7 cbr 1020 [13a 3 1 800] ------- [0:2 5:0 29 3] [7] 2 0
s 0.751007800 _3_ MAC  --- 0 ACK 38 [0 1 0 0] 
r 0.751022800 _3_ RTR  --- 7 cbr 1020 [13a 3 1 800] ------- [0:2 5:0 29 3] [7] 2 0
f 0.751022800 _3_ RTR  --- 7 cbr 1020 [13a 3 1 800] ------- [0:2 5:0 28 5] [7] 2 0
r 0.751312545 _1_ MAC  --- 0 ACK 38 [0 1 0 0] 
s 0.751601800 _3_ MAC  --- 0 RTS 44 [242e 5 3 0] 
r 0.751954545 _5_ MAC  --- 0 RTS 44 [242e 5 3 0] 
s 0.751964545 _5_ MAC  --- 0 CTS 38 [22f4 3 0 0] 
r 0.752269291 _3_ MAC  --- 0 CTS 38 [22f4 3 0 0] 
s 0.752279291 _3_ MAC  --- 7 cbr 1078 [13a 5 3 800] ------- [0:2 5:0 28 5] [7] 2 0
r 0.760904036 _5_ MAC  --- 7 cbr 1020 [13a 5 3 800] ------- [0:2 5:0 28 5] [7] 3 0
s 0.760914036 _5_ MAC  --- 0 ACK 38 [0 3 0 0] 
r 0.760929036 _5_ AGT  --- 7 cbr 1020 [13a 5 3 800] ------- [0:2 5:0 28 5] [7] 3 0
r 0.761218781 _3_ MAC  --- 0 ACK 38 [0 3 0 0] 
s 0.761538492 _0_ MAC  --- 0 RTS 44 [242e 1 0 0] 
r 0.761890964 _1_ MAC  --- 0 RTS 44 [242e 1 0 0] 
s 0.761900964 _1_ MAC  --- 0 CTS 38 [22f4 0 0 0] 
r 0.762205435 _0_ MAC  --- 0 CTS 38 [22f4 0 0 0] 
s 0.762215435 _0_ MAC  --- 8 cbr 1078 [13a 1 0 800] ------- [0:2 5:0 30 1] [8] 0 0
s 0.770000000 _0_ AGT  --- 9 cbr 1000 [0 0 0 0] ------- [0:2 5:0 32 0] [9] 0 0
r 0.770000000 _0_ RTR  --- 9 cbr 1000 [0 0 0 0] ------- [0:2 5:0 32 0] [9] 0 0
s 0.770000000 _0_ RTR  --- 9 cbr 1020 [0 0 0 0] ------- [0:2 5:0 30 1] [9] 0 0
r 0.770839907 _1_ MAC  --- 8 cbr 1020 [13a 1 0 800] ------- [0:2 5:0 30 1] [8] 1 0
s 0.770849907 _1_ MAC  --- 0 ACK 38 [0 0 0 0] 
r 0.770864907 _1_ RTR  --- 8 cbr 1020 [13a 1 0 800] ------- [0:2 5:0 30 1] [8] 1 0
f 0.770864907 _1_ RTR  --- 8 cbr 1020 [13a 1 0 800] ------- [0:2 5:0 29 3] [8] 1 0
r 0.771154378 _0_ MAC  --- 0 ACK 38 [0 0 0 0] 
s 0.771243907 _1_ MAC  --- 0 RTS 44 [242e 3 1 0] 
r 0.771596652 _3_ MAC  --- 0 RTS 44 [242e 3 1 0] 
s 0.771606652 _3_ MAC  --- 0 CTS 38 [22f4 1 0 0] 
r 0.771911397 _1_ MAC  --- 0 CTS 38 [22f4 1 0 0] 
s 0.771921397 _1_ MAC  --- 8 cbr 1078 [13a 3 1 800] ------- [0:2 5:0 29 3] [8] 1 0
r 0.780546143 _3_ MAC  --- 8 cbr 1020 [13a 3 1 800] ------- [0:2 5:0 29 3] [8] 2 0
s 0.780556143 _3_ MAC  --- 0 ACK 38 [0 1 0 0] 
r 0.780571143 _3_ RTR  --- 8 cbr 1020 [13a 3 1 800] ------- [0:2 5:0 29 3] [8] 2 0
f 0.780571143 _3_ RTR  --- 8 cbr 1020 [13a 3 1 800] ------- [0:2 5:0 28 5] [8] 2 0
r 0.780860888 _1_ MAC  --- 0 ACK 38 [0 1 0 0] 
s 0.780950143 _3_ MAC  --- 0 RTS 44 [242e 5 3 0] 
r 0.781302888 _5_ MAC  --- 0 RTS 44 [242e 5 3 0] 
s 0.781312888 _5_ MAC  --- 0 CTS 38 [22f4 3 0 0] 
r 0.781617633 _3_ MAC  --- 0 CTS 38 [22f4 3 0 0] 
s 0.781627633 _3_ MAC  --- 8 cbr 1078 [13a 5 3 800] ------- [0:2 5:0 28 5] [8] 2 0
r 0.790252379 _5_ MAC  --- 8 cbr 1020 [13a 5 3 800] ------- [0:2 5:0 28 5] [8] 3 0
s 0.790262379 _5_ MAC  --- 0 ACK 38 [0 3 0 0] 
r 0.790277379 _5_ AGT  --- 8 cbr 1020 [13a 5 3 800] ------- [0:2 5:0 28 5] [8] 3 0
r 0.790567124 _3_ MAC  --- 0 ACK 38 [0 3 0 0] 
s 0.791086835 _0_ MAC  --- 0 RTS 44 [242e 1 0 0] 
r 0.791439307 _1_ MAC  --- 0 RTS 44 [242e 1 0 0] 
s 0.791449307 _1_ MAC  --- 0 CTS 38 [22f4 0 0 0] 
r 0.791753778 _0_ MAC  --- 0 CTS 38 [22f4 0 0 0] 
s 0.791763778 _0_ MAC  --- 9 cbr 1078 [13a 1 0 800] ------- [0:2 5:0 30 1] [9] 0 0
s 0.800000000 _0_ AGT  --- 10 cbr 1000 [0 0 0 0] ------- [0:2 5:0 32 0] [10] 0 0
r 0.800000000 _0_ RTR  --- 10 cbr 1000 [0 0 0 0] ------- [0:2 5:0 32 0] [10] 0 0
s 0.800000000 _0_ RTR  --- 10 cbr 1020 [0 0 0 0] ------- [0:2 5:0 30 1] [10] 0 0
r 0.800388250 _1_ MAC  --- 9 cbr 1020 [13a 1 0 800] ------- [0:2 5:0 30 1] [9] 1 0
s 0.800398250 _1_ MAC  --- 0 ACK 38 [0 0 0 0] 
r 0.800413250 _1_ RTR  --- 9 cbr 1020 [13a 1 0 800] ------- [0:2 5:0 30 1] [9] 1 0
f 0.800413250 _1_ RTR  --- 9 cbr 1020 [13a 1 0 800] ------- [0:2 5:0 29 3] [9] 1 0
r 0.800702721 _0_ MAC  --- 0 ACK 38 [0 0 0 0] 
s 0.800832721 _0_ MAC  --- 0 RTS 44 [242e 1 0 0] 
r 0.801185192 _1_ MAC  --- 0 RTS 44 [242e 1 0 0] 
s 0.801195192 _1_ MAC  --- 0 CTS 38 [22f4 0 0 0] 
r 0.801499664 _0_ MAC  --- 0 CTS 38 [22f4 0 0 0] 
s 0.801509664 _0_ MAC  --- 10 cbr 1078 [13a 1 0 800] ------- [0:2 5:0 30 1] [10] 0 0
r 0.810134135 _1_ MAC  --- 10 cbr 1020 [13a 1 0 800] ------- [0:2 5:0 30 1] [10] 1 0
s 0.810144135 _1_ MAC  --- 0 ACK 38 [0 0 0 0] 
r 0.810159135 _1_ RTR  --- 10 cbr 1020 [13a 1 0 800] ------- [0:2 5:0 30 1] [10] 1 0
f 0.810159135 _1_ RTR  --- 10 cbr 1020 [13a 1 0 800] ------- [0:2 5:0 29 3] [10] 1 0
r 0.810448607 _0_ MAC  --- 0 ACK 38 [0 0 0 0] 
s 0.810518135 _1_ MAC  --- 0 RTS 44 [242e 3 1 0] 
r 0.810870881 _3_ MAC  --- 0 RTS 44 [242e 3 1 0] 
s 0.810880881 _3_ MAC  --- 0 CTS 38 [22f4 1 0 0] 
r 0.811185626 _1_ MAC  --- 0 CTS 38 [22f4 1 0 0] 